h2 fci scan distance 0.7                                                
SP        RMP2-FU                                                     6-311G              
Number of atoms                            I                2
Charge                                     I                0
Multiplicity                               I                1
Number of electrons                        I                2
Number of alpha electrons                  I                1
Number of beta electrons                   I                1
Number of basis functions                  I                6
Number of independant functions            I                6
Number of point charges in /Mol/           I                0
Number of translation vectors              I                0
Info1-9                                    I   N=           9
          14          13           0           0           0         111
           1           2           2
Num ILSW                                   I              100
ILSW                                       I   N=         100
           0           0           0           0           2           0
           0           0           0           0           0     1000000
           0           0           0           0           0           0
           0     1000000           0           0           0           0
           1           0           0           0     1000000           0
           0           0           0           0          -1           0
           0           0           0           0           0           0
           0           0           0           1           0           0
           0           0           1     1000000     1000000           0
           0           0           0           0           0           0
           0           0           0           0           0           0
           0           0           0           0           0           0
           0           0           0           0           0           0
           0           0           0           0           0           0
           0           0           0           0           0           0
           0           0           0           0           0           0
           0           0           0           0
Number of contracted shells                I                6
Highest angular momentum                   I                0
Largest degree of contraction              I                3
Number of primitive shells                 I               10
Pure/Cartesian d shells                    I                0
Pure/Cartesian f shells                    I                0
Virial Ratio                               R      1.970067213201737E+00
SCF Energy                                 R     -1.127274897600193E+00
MP2 Energy                                 R     -1.144866921941558E+00
Total Energy                               R     -1.144866921941558E+00
Post-SCF wavefunction norm                 R      1.003171389031118E+00
RMS Density                                R      2.274680120728542E-10
Atomic numbers                             I   N=           2
           1           1
Nuclear charges                            R   N=           2
  1.00000000E+00  1.00000000E+00
Current cartesian coordinates              R   N=           6
  0.00000000E+00  0.00000000E+00  6.61404147E-01  8.09986471E-17  0.00000000E+00
 -6.61404147E-01
Int Atom Types                             I   N=           2
           0           0
Force Field                                I                0
MM charges                                 R   N=           2
  0.00000000E+00  0.00000000E+00
Integer atomic weights                     I   N=           2
           1           1
Real atomic weights                        R   N=           2
  1.00782504E+00  1.00782504E+00
Atom residue info                          I   N=           2
           0           0
Atom fragment info                         I   N=           2
           0           0
Atom residue num                           I   N=           2
           0           0
Nuclear spins                              I   N=           2
           1           1
Nuclear ZEff                               R   N=           2
 -1.00000000E+00 -1.00000000E+00
Nuclear QMom                               R   N=           2
  0.00000000E+00  0.00000000E+00
Nuclear GFac                               R   N=           2
  2.79284600E+00  2.79284600E+00
MicOpt                                     I   N=           2
           0           0
Constraint Structure                       R   N=           6
  0.00000000E+00  0.00000000E+00  6.61404147E-01  8.09986471E-17  0.00000000E+00
 -6.61404147E-01
ONIOM Charges                              I   N=          16
           0           0           0           0           0           0
           0           0           0           0           0           0
           0           0           0           0
ONIOM Multiplicities                       I   N=          16
           1           0           0           0           0           0
           0           0           0           0           0           0
           0           0           0           0
Atom Layers                                I   N=           2
           1           1
Atom Modifiers                             I   N=           2
           0           0
Int Atom Modified Types                    I   N=           2
           0           0
Link Atoms                                 I   N=           2
           0           0
Atom Modified MM Charges                   R   N=           2
  0.00000000E+00  0.00000000E+00
Link Distances                             R   N=           8
  0.00000000E+00  0.00000000E+00  0.00000000E+00  0.00000000E+00  0.00000000E+00
  0.00000000E+00  0.00000000E+00  0.00000000E+00
MxBond                                     I                1
NBond                                      I   N=           2
           1           1
IBond                                      I   N=           2
           2           1
RBond                                      R   N=           2
  1.00000000E+00  1.00000000E+00
Shell types                                I   N=           6
           0           0           0           0           0           0
Number of primitives per shell             I   N=           6
           3           1           1           3           1           1
Shell to atom map                          I   N=           6
           1           1           1           2           2           2
Primitive exponents                        R   N=          10
  3.38650000E+01  5.09479000E+00  1.15879000E+00  3.25840000E-01  1.02741000E-01
  3.38650000E+01  5.09479000E+00  1.15879000E+00  3.25840000E-01  1.02741000E-01
Contraction coefficients                   R   N=          10
  2.54938145E-02  1.90373109E-01  8.52161486E-01  1.00000000E+00  1.00000000E+00
  2.54938145E-02  1.90373109E-01  8.52161486E-01  1.00000000E+00  1.00000000E+00
Coordinates of each shell                  R   N=          18
  0.00000000E+00  0.00000000E+00  6.61404147E-01  0.00000000E+00  0.00000000E+00
  6.61404147E-01  0.00000000E+00  0.00000000E+00  6.61404147E-01  8.09986471E-17
  0.00000000E+00 -6.61404147E-01  8.09986471E-17  0.00000000E+00 -6.61404147E-01
  8.09986471E-17  0.00000000E+00 -6.61404147E-01
Alpha Orbital Energies                     R   N=           6
 -6.08499623E-01  1.74745900E-01  3.02938399E-01  6.69616386E-01  2.35840208E+00
  2.80832738E+00
Alpha MO coefficients                      R   N=          36
  1.97904486E-01  2.91992391E-01  1.21261887E-01  1.97904486E-01  2.91992391E-01
  1.21261887E-01  7.73660624E-02 -5.94084394E-02  2.42355019E+00 -7.73660624E-02
  5.94084394E-02 -2.42355019E+00 -5.11217515E-02 -6.94517187E-01  8.41563799E-01
 -5.11217515E-02 -6.94517187E-01  8.41563799E-01 -8.60173984E-02 -1.82954113E+00
  2.28058607E+00  8.60173984E-02  1.82954113E+00 -2.28058607E+00 -1.06494079E+00
  1.21121242E+00 -4.86847826E-01 -1.06494079E+00  1.21121242E+00 -4.86847826E-01
 -1.14855478E+00  1.83344792E+00 -1.22987338E+00  1.14855478E+00 -1.83344792E+00
  1.22987338E+00
Total SCF Density                          R   N=          21
  7.83323713E-02  1.15573208E-01  1.70519113E-01  4.79965429E-02  7.08150966E-02
  2.94088904E-02  7.83323713E-02  1.15573208E-01  4.79965429E-02  7.83323713E-02
  1.15573208E-01  1.70519113E-01  7.08150966E-02  1.15573208E-01  1.70519113E-01
  4.79965429E-02  7.08150966E-02  2.94088904E-02  4.79965429E-02  7.08150966E-02
  2.94088904E-02
Cartesian Gradient                         R   N=           6
  0.00000000E+00  0.00000000E+00  0.00000000E+00  0.00000000E+00  0.00000000E+00
  0.00000000E+00
Mulliken Charges                           R   N=           2
 -1.60982339E-15 -1.55431223E-15
