Generated by Psi4
        SP                CIWavefunction                         3-21G
Number of atoms                            I                2
Charge                                     I                0
Multiplicity                               I                1
Number of electrons                        I                6
Number of alpha electrons                  I                3
Number of beta electrons                   I                3
Number of basis functions                  I               18
Number of independent functions            I               18
Atomic numbers                             I   N=           2
           3           3
Nuclear charges                            R   N=           2
  3.00000000e+00  3.00000000e+00
Current cartesian coordinates              R   N=           6
  0.00000000e+00  0.00000000e+00 -1.13383568e+00  0.00000000e+00  0.00000000e+00
  1.13383568e+00
Integer atomic weights                     I   N=           2
           7           7
Real atomic weights                        R   N=           2
  7.01600344e+00  7.01600344e+00
Number of primitive shells                 I               18
Number of contracted shells                I               10
Pure/Cartesian d shells                    I                1
Pure/Cartesian f shells                    I                1
Highest angular momentum                   I                1
Largest degree of contraction              I                3
Shell types                                I   N=          10
           0           0           1           0           1           0
           0           1           0           1
Number of primitives per shell             I   N=          10
           3           2           2           1           1           3
           2           2           1           1
Shell to atom map                          I   N=          10
           1           1           1           1           1           2
           2           2           2           2
Primitive exponents                        R   N=          18
  3.68382000e+01  5.48172000e+00  1.11327000e+00  5.40205000e-01  1.02255000e-01
  5.40205000e-01  1.02255000e-01  2.85650000e-02  2.85650000e-02  3.68382000e+01
  5.48172000e+00  1.11327000e+00  5.40205000e-01  1.02255000e-01  5.40205000e-01
  1.02255000e-01  2.85650000e-02  2.85650000e-02
Contraction coefficients                   R   N=          18
  6.96686638e-02  3.81346349e-01  6.81702624e-01 -2.63126406e-01  1.14338742e+00
  1.61545971e-01  9.15662835e-01  1.00000000e+00  1.00000000e+00  6.96686638e-02
  3.81346349e-01  6.81702624e-01 -2.63126406e-01  1.14338742e+00  1.61545971e-01
  9.15662835e-01  1.00000000e+00  1.00000000e+00
Coordinates of each shell                  R   N=          30
  0.00000000e+00  0.00000000e+00 -1.13383568e+00  0.00000000e+00  0.00000000e+00
 -1.13383568e+00  0.00000000e+00  0.00000000e+00 -1.13383568e+00  0.00000000e+00
  0.00000000e+00 -1.13383568e+00  0.00000000e+00  0.00000000e+00 -1.13383568e+00
  0.00000000e+00  0.00000000e+00  1.13383568e+00  0.00000000e+00  0.00000000e+00
  1.13383568e+00  0.00000000e+00  0.00000000e+00  1.13383568e+00  0.00000000e+00
  0.00000000e+00  1.13383568e+00  0.00000000e+00  0.00000000e+00  1.13383568e+00
Total Energy                               R     -1.457779339029219e+01
Alpha Orbital Energies                     R   N=          18
 -2.66052756e+00 -2.52589203e+00 -2.08306052e-01  4.45999469e-03  4.45999469e-03
  1.59766989e-02  7.22511554e-02  8.46085301e-02  8.46085301e-02  1.01984548e-01
  1.28051430e-01  1.28051430e-01  1.67398047e-01  2.37972434e-01  2.73786428e-01
  3.16930168e-01  3.16930168e-01  1.98510252e+00
Alpha MO coefficients                      R   N=         324
  6.80748590e-01  3.09556319e-02  0.00000000e+00  0.00000000e+00  2.57707433e-02
 -6.18901287e-03  0.00000000e+00  0.00000000e+00 -2.61498984e-02  6.80748590e-01
  3.09556319e-02  0.00000000e+00  0.00000000e+00 -2.57707433e-02 -6.18901287e-03
  0.00000000e+00  0.00000000e+00  2.61498984e-02  7.16694784e-01  4.06013915e-02
  0.00000000e+00  0.00000000e+00 -1.12830294e-02 -7.09807707e-01  0.00000000e+00
  0.00000000e+00 -1.31343455e-01 -7.16694784e-01 -4.06013915e-02  0.00000000e+00
  0.00000000e+00 -1.12830294e-02  7.09807707e-01  0.00000000e+00  0.00000000e+00
 -1.31343455e-01  1.93029388e-01 -2.54343603e-01  0.00000000e+00  0.00000000e+00
  3.64480737e-02 -2.92952334e-01  0.00000000e+00  0.00000000e+00 -9.22414390e-02
  1.93029388e-01 -2.54343603e-01  0.00000000e+00  0.00000000e+00 -3.64480737e-02
 -2.92952334e-01  0.00000000e+00  0.00000000e+00  9.22414390e-02  0.00000000e+00
  0.00000000e+00  0.00000000e+00  2.70547677e-01  0.00000000e+00  0.00000000e+00
  0.00000000e+00  3.10388558e-01  0.00000000e+00  0.00000000e+00  0.00000000e+00
  0.00000000e+00  2.70547677e-01  0.00000000e+00  0.00000000e+00  0.00000000e+00
  3.10388558e-01  0.00000000e+00  0.00000000e+00  0.00000000e+00  2.70547677e-01
  0.00000000e+00  0.00000000e+00  0.00000000e+00  3.10388558e-01  0.00000000e+00
  0.00000000e+00  0.00000000e+00  0.00000000e+00  2.70547677e-01  0.00000000e+00
  0.00000000e+00  0.00000000e+00  3.10388558e-01  0.00000000e+00  0.00000000e+00
  7.00286049e-02 -1.48326079e-01  0.00000000e+00  0.00000000e+00  9.90516995e-02
  1.01459294e+01  0.00000000e+00  0.00000000e+00  2.45034336e+00 -7.00286049e-02
  1.48326079e-01  0.00000000e+00  0.00000000e+00  9.90516995e-02 -1.01459294e+01
  0.00000000e+00  0.00000000e+00  2.45034336e+00  7.53069096e-02 -6.03873454e-02
  0.00000000e+00  0.00000000e+00 -3.41525532e-03  4.56881806e-01  0.00000000e+00
  0.00000000e+00 -1.80016895e+00  7.53069096e-02 -6.03873454e-02  0.00000000e+00
  0.00000000e+00  3.41525532e-03  4.56881806e-01  0.00000000e+00  0.00000000e+00
  1.80016895e+00  0.00000000e+00  0.00000000e+00  1.98622347e-02  0.00000000e+00
  0.00000000e+00  0.00000000e+00  2.63897865e+00  0.00000000e+00  0.00000000e+00
  0.00000000e+00  0.00000000e+00 -1.98622347e-02  0.00000000e+00  0.00000000e+00
  0.00000000e+00 -2.63897865e+00  0.00000000e+00  0.00000000e+00  0.00000000e+00
  0.00000000e+00  0.00000000e+00  1.98622347e-02  0.00000000e+00  0.00000000e+00
  0.00000000e+00  2.63897865e+00  0.00000000e+00  0.00000000e+00  0.00000000e+00
  0.00000000e+00 -1.98622347e-02  0.00000000e+00  0.00000000e+00  0.00000000e+00
 -2.63897865e+00  0.00000000e+00  7.29760104e-02 -7.18382208e-02  0.00000000e+00
  0.00000000e+00  4.09432259e-02 -8.14516630e+01  0.00000000e+00  0.00000000e+00
 -1.62165972e+01 -7.29760104e-02  7.18382208e-02  0.00000000e+00  0.00000000e+00
  4.09432259e-02  8.14516630e+01  0.00000000e+00  0.00000000e+00 -1.62165972e+01
  0.00000000e+00  0.00000000e+00  0.00000000e+00  6.18828447e-01  0.00000000e+00
  0.00000000e+00  0.00000000e+00 -5.60925174e-01  0.00000000e+00  0.00000000e+00
  0.00000000e+00  0.00000000e+00  6.18828447e-01  0.00000000e+00  0.00000000e+00
  0.00000000e+00 -5.60925174e-01  0.00000000e+00  0.00000000e+00  0.00000000e+00
  6.18828447e-01  0.00000000e+00  0.00000000e+00  0.00000000e+00 -5.60925174e-01
  0.00000000e+00  0.00000000e+00  0.00000000e+00  0.00000000e+00  6.18828447e-01
  0.00000000e+00  0.00000000e+00  0.00000000e+00 -5.60925174e-01  0.00000000e+00
  0.00000000e+00  8.68317132e-02 -1.02280253e+00  0.00000000e+00  0.00000000e+00
  1.78867521e-01  6.95957507e-01  0.00000000e+00  0.00000000e+00  9.57495812e-01
  8.68317132e-02 -1.02280253e+00  0.00000000e+00  0.00000000e+00 -1.78867521e-01
  6.95957507e-01  0.00000000e+00  0.00000000e+00 -9.57495812e-01  1.11728969e-01
 -7.16415528e-01  0.00000000e+00  0.00000000e+00  7.32832922e-01  6.46990670e+01
  0.00000000e+00  0.00000000e+00  1.22071724e+01 -1.11728969e-01  7.16415528e-01
  0.00000000e+00  0.00000000e+00  7.32832922e-01 -6.46990670e+01  0.00000000e+00
  0.00000000e+00  1.22071724e+01  2.38689325e-01  1.78952518e-01  0.00000000e+00
  0.00000000e+00 -1.07834638e+00 -2.21603012e-01  0.00000000e+00  0.00000000e+00
  9.18944699e-01  2.38689325e-01  1.78952518e-01  0.00000000e+00  0.00000000e+00
  1.07834638e+00 -2.21603012e-01  0.00000000e+00  0.00000000e+00 -9.18944699e-01
  0.00000000e+00  0.00000000e+00  1.56746520e+00  0.00000000e+00  0.00000000e+00
  0.00000000e+00 -1.45671691e+00  0.00000000e+00  0.00000000e+00  0.00000000e+00
  0.00000000e+00 -1.56746520e+00  0.00000000e+00  0.00000000e+00  0.00000000e+00
  1.45671691e+00  0.00000000e+00  0.00000000e+00  0.00000000e+00  0.00000000e+00
  0.00000000e+00  1.56746520e+00  0.00000000e+00  0.00000000e+00  0.00000000e+00
 -1.45671691e+00  0.00000000e+00  0.00000000e+00  0.00000000e+00  0.00000000e+00
 -1.56746520e+00  0.00000000e+00  0.00000000e+00  0.00000000e+00  1.45671691e+00
  0.00000000e+00  9.22472755e-01  5.95514988e+00  0.00000000e+00  0.00000000e+00
  2.31354325e+00 -2.25996424e+01  0.00000000e+00  0.00000000e+00 -4.35479386e+00
 -9.22472755e-01 -5.95514988e+00  0.00000000e+00  0.00000000e+00  2.31354325e+00
  2.25996424e+01  0.00000000e+00  0.00000000e+00 -4.35479386e+00
Total SCF Density                          R   N=         171
  2.02866080e+00  2.15203656e-03  1.34594785e-01  0.00000000e+00  0.00000000e+00
  0.00000000e+00  0.00000000e+00  0.00000000e+00  0.00000000e+00  0.00000000e+00
  3.29849165e-02 -1.78613829e-02  0.00000000e+00  0.00000000e+00  4.23980008e-03
 -1.13895411e+00  9.09995735e-02  0.00000000e+00  0.00000000e+00 -5.65652499e-03
  1.17937271e+00  0.00000000e+00  0.00000000e+00  0.00000000e+00  0.00000000e+00
  0.00000000e+00  0.00000000e+00  0.00000000e+00  0.00000000e+00  0.00000000e+00
  0.00000000e+00  0.00000000e+00  0.00000000e+00  0.00000000e+00  0.00000000e+00
  0.00000000e+00 -2.59479968e-01  3.46376126e-02  0.00000000e+00  0.00000000e+00
 -5.10794605e-03  2.40825567e-01  0.00000000e+00  0.00000000e+00  5.28868066e-02
 -2.59448511e-02 -1.14243186e-01  0.00000000e+00  0.00000000e+00  6.53308697e-02
  8.95907819e-01  0.00000000e+00  0.00000000e+00  1.17052708e-01  2.02866080e+00
 -1.14243186e-01  1.28000893e-01  0.00000000e+00  0.00000000e+00 -1.60289561e-02
  2.06276296e-01  0.00000000e+00  0.00000000e+00  5.59685207e-02  2.15203656e-03
  1.34594785e-01  0.00000000e+00  0.00000000e+00  0.00000000e+00  0.00000000e+00
  0.00000000e+00  0.00000000e+00  0.00000000e+00  0.00000000e+00  0.00000000e+00
  0.00000000e+00  0.00000000e+00  0.00000000e+00  0.00000000e+00  0.00000000e+00
  0.00000000e+00  0.00000000e+00  0.00000000e+00  0.00000000e+00  0.00000000e+00
  0.00000000e+00  0.00000000e+00  0.00000000e+00  0.00000000e+00  0.00000000e+00
  0.00000000e+00 -6.53308697e-02  1.60289561e-02  0.00000000e+00  0.00000000e+00
 -3.73057307e-03  3.76916498e-02  0.00000000e+00  0.00000000e+00  1.10357543e-02
 -3.29849165e-02  1.78613829e-02  0.00000000e+00  0.00000000e+00  4.23980008e-03
  8.95907819e-01  2.06276296e-01  0.00000000e+00  0.00000000e+00 -3.76916498e-02
 -8.35935215e-01  0.00000000e+00  0.00000000e+00 -1.32088819e-01 -1.13895411e+00
  9.09995735e-02  0.00000000e+00  0.00000000e+00  5.65652499e-03  1.17937271e+00
  0.00000000e+00  0.00000000e+00  0.00000000e+00  0.00000000e+00  0.00000000e+00
  0.00000000e+00  0.00000000e+00  0.00000000e+00  0.00000000e+00  0.00000000e+00
  0.00000000e+00  0.00000000e+00  0.00000000e+00  0.00000000e+00  0.00000000e+00
  0.00000000e+00  0.00000000e+00  0.00000000e+00  0.00000000e+00  0.00000000e+00
  0.00000000e+00  0.00000000e+00  0.00000000e+00  0.00000000e+00  0.00000000e+00
  0.00000000e+00  0.00000000e+00  0.00000000e+00  0.00000000e+00  0.00000000e+00
  0.00000000e+00  0.00000000e+00  0.00000000e+00 -1.17052708e-01 -5.59685207e-02
  0.00000000e+00  0.00000000e+00  1.10357543e-02  1.32088819e-01  0.00000000e+00
  0.00000000e+00  1.61176057e-02  2.59479968e-01 -3.46376126e-02  0.00000000e+00
  0.00000000e+00 -5.10794605e-03 -2.40825567e-01  0.00000000e+00  0.00000000e+00
  5.28868066e-02
Total CC Density                           R   N=         171
  2.01701969e+00  2.66024952e-03  1.57649140e-01  0.00000000e+00  0.00000000e+00
  3.90371695e-02  0.00000000e+00  0.00000000e+00  0.00000000e+00  3.90371695e-02
  2.78351519e-02 -8.28636860e-03  0.00000000e+00  0.00000000e+00  1.43863960e-02
 -1.14375088e+00  8.27667041e-02  0.00000000e+00  0.00000000e+00 -7.74948302e-02
  1.96631939e+00  0.00000000e+00  0.00000000e+00  7.25606596e-03  0.00000000e+00
  0.00000000e+00  0.00000000e+00  1.46078248e-03  0.00000000e+00  0.00000000e+00
  0.00000000e+00  7.25606596e-03  0.00000000e+00  0.00000000e+00  0.00000000e+00
  1.46078248e-03 -2.68186104e-01  4.34138282e-02  0.00000000e+00  0.00000000e+00
 -1.84163407e-02  3.83108789e-01  0.00000000e+00  0.00000000e+00  8.40116908e-02
 -3.33852004e-02 -1.01603771e-01  0.00000000e+00  0.00000000e+00  6.13888768e-02
  9.57847263e-01  0.00000000e+00  0.00000000e+00  1.19554284e-01  2.01701969e+00
 -1.01603771e-01  1.07823932e-01  0.00000000e+00  0.00000000e+00 -1.22055744e-02
  1.49221788e-01  0.00000000e+00  0.00000000e+00  5.86674914e-02  2.66024952e-03
  1.57649140e-01  0.00000000e+00  0.00000000e+00  3.87566429e-02  0.00000000e+00
  0.00000000e+00  0.00000000e+00  7.42448195e-03  0.00000000e+00  0.00000000e+00
  0.00000000e+00  0.00000000e+00  3.90371695e-02  0.00000000e+00  0.00000000e+00
  0.00000000e+00  3.87566429e-02  0.00000000e+00  0.00000000e+00  0.00000000e+00
  7.42448195e-03  0.00000000e+00  0.00000000e+00  0.00000000e+00  0.00000000e+00
  3.90371695e-02 -6.13888768e-02  1.22055744e-02  0.00000000e+00  0.00000000e+00
  7.58808569e-03 -5.17728565e-02  0.00000000e+00  0.00000000e+00 -3.89718395e-03
 -2.78351519e-02  8.28636860e-03  0.00000000e+00  0.00000000e+00  1.43863960e-02
  9.57847263e-01  1.49221788e-01  0.00000000e+00  0.00000000e+00  5.17728565e-02
 -1.74778829e+00  0.00000000e+00  0.00000000e+00 -2.83102135e-01 -1.14375088e+00
  8.27667041e-02  0.00000000e+00  0.00000000e+00  7.74948302e-02  1.96631939e+00
  0.00000000e+00  0.00000000e+00  7.42448195e-03  0.00000000e+00  0.00000000e+00
  0.00000000e+00  1.33912822e-03  0.00000000e+00  0.00000000e+00  0.00000000e+00
  0.00000000e+00  7.25606596e-03  0.00000000e+00  0.00000000e+00  0.00000000e+00
  1.46078248e-03  0.00000000e+00  0.00000000e+00  0.00000000e+00  7.42448195e-03
  0.00000000e+00  0.00000000e+00  0.00000000e+00  1.33912822e-03  0.00000000e+00
  0.00000000e+00  0.00000000e+00  0.00000000e+00  7.25606596e-03  0.00000000e+00
  0.00000000e+00  0.00000000e+00  1.46078248e-03 -1.19554284e-01 -5.86674914e-02
  0.00000000e+00  0.00000000e+00 -3.89718395e-03  2.83102135e-01  0.00000000e+00
  0.00000000e+00  3.57745248e-02  2.68186104e-01 -4.34138282e-02  0.00000000e+00
  0.00000000e+00 -1.84163407e-02 -3.83108789e-01  0.00000000e+00  0.00000000e+00
  8.40116908e-02
