
    -----------------------------------------------------------------------
          Psi4: An Open-Source Ab Initio Electronic Structure Package
                               Psi4 1.3.2 release

                         Git: Rev {} zzzzzzz 


    R. M. Parrish, L. A. Burns, D. G. A. Smith, A. C. Simmonett,
    A. E. DePrince III, E. G. Hohenstein, U. Bozkaya, A. Yu. Sokolov,
    R. Di Remigio, R. M. Richard, J. F. Gonthier, A. M. James,
    H. R. McAlexander, A. Kumar, M. Saitow, X. Wang, B. P. Pritchard,
    P. Verma, H. F. Schaefer III, K. Patkowski, R. A. King, E. F. Valeev,
    F. A. Evangelista, J. M. Turney, T. D. Crawford, and C. D. Sherrill,
    J. Chem. Theory Comput. 13(7) pp 3185--3197 (2017).
    (doi: 10.1021/acs.jctc.7b00174)


                         Additional Contributions by
    P. Kraus, H. Kruse, M. H. Lechner, M. C. Schieber, R. A. Shaw,
    A. Alenaizan, R. Galvelis, Z. L. Glick, S. Lehtola, and J. P. Misiewicz

    -----------------------------------------------------------------------


    Psi4 started on: Sunday, 25 October 2020 01:13AM

    Process ID: 16169
    Host:       marm314
    PSIDATADIR: /usr/share/psi4
    Memory:     500.0 MiB
    Threads:    1
    
  ==> Input File <==

--------------------------------------------------------------------------
molecule li2 {
Li
Li 1 1.20
}

set {
  basis 3-21g
  print_MOs true
  qc_module detci
  opdm True
  tpdm True
}

E,wfn = energy('cisd',return_wfn=True)
opdm = wfn.get_opdm(-1,-1,"SUM",False)
opdm_prt = opdm.print_out()
tpdm = wfn.get_tpdm("SUM",False)
tpdm_prt = tpdm.print_out()
fchk_writer = psi4.core.FCHKWriter(wfn)
fchk_writer.write('li2.fchk')
--------------------------------------------------------------------------

*** tstart() called on marm314
*** at Sun Oct 25 01:13:01 2020

   => Loading Basis Set <=

    Name: 3-21G
    Role: ORBITAL
    Keyword: BASIS
    atoms 1-2 entry LI         line    35 file /usr/share/psi4/basis/3-21g.gbs 


         ---------------------------------------------------------
                                   SCF
               by Justin Turney, Rob Parrish, Andy Simmonett
                          and Daniel G. A. Smith
                              RHF Reference
                        1 Threads,    500 MiB Core
         ---------------------------------------------------------

  ==> Geometry <==

    Molecular point group: d2h
    Full point group: D_inf_h

    Geometry (in Angstrom), charge = 0, multiplicity = 1:

       Center              X                  Y                   Z               Mass       
    ------------   -----------------  -----------------  -----------------  -----------------
         LI           0.000000000000     0.000000000000    -0.600000000000     7.016003436600
         LI           0.000000000000     0.000000000000     0.600000000000     7.016003436600

  Running in d2h symmetry.

  Rotational constants: A = ************  B =      3.33714  C =      3.33714 [cm^-1]
  Rotational constants: A = ************  B = 100044.88972  C = 100044.88972 [MHz]
  Nuclear repulsion =    3.968829080025001

  Charge       = 0
  Multiplicity = 1
  Electrons    = 6
  Nalpha       = 3
  Nbeta        = 3

  ==> Algorithm <==

  SCF Algorithm Type is PK.
  DIIS enabled.
  MOM disabled.
  Fractional occupation disabled.
  Guess Type is SAD.
  Energy threshold   = 1.00e-08
  Density threshold  = 1.00e-08
  Integral threshold = 0.00e+00

  ==> Primary Basis <==

  Basis Set: 3-21G
    Blend: 3-21G
    Number of shells: 10
    Number of basis function: 18
    Number of Cartesian functions: 18
    Spherical Harmonics?: false
    Max angular momentum: 1

  ==> Pre-Iterations <==

   -------------------------------------------------------
    Irrep   Nso     Nmo     Nalpha   Nbeta   Ndocc  Nsocc
   -------------------------------------------------------
     Ag         5       5       0       0       0       0
     B1g        0       0       0       0       0       0
     B2g        2       2       0       0       0       0
     B3g        2       2       0       0       0       0
     Au         0       0       0       0       0       0
     B1u        5       5       0       0       0       0
     B2u        2       2       0       0       0       0
     B3u        2       2       0       0       0       0
   -------------------------------------------------------
    Total      18      18       3       3       3       0
   -------------------------------------------------------

  ==> Integral Setup <==

  Using in-core PK algorithm.
   Calculation information:
      Number of atoms:                   2
      Number of AO shells:              10
      Number of primitives:             18
      Number of atomic orbitals:        18
      Number of basis functions:        18

      Integral cutoff                 1.00e-12
      Number of threads:                 1

  Performing in-core PK
  Using 29412 doubles for integral storage.
  We computed 1540 shell quartets total.
  Whereas there are 1540 unique shell quartets.

  ==> DiskJK: Disk-Based J/K Matrices <==

    J tasked:                  Yes
    K tasked:                  Yes
    wK tasked:                  No
    Memory [MiB]:              375
    Schwarz Cutoff:          1E-12

    OpenMP threads:              1

  Minimum eigenvalue in the overlap matrix is 4.2109536548E-05.
  Using Symmetric Orthogonalization.

  SCF Guess: Superposition of Atomic Densities via on-the-fly atomic UHF.

  ==> Iterations <==

                        Total Energy        Delta E     RMS |[F,P]|

   @RHF iter SAD:   -14.41112485802813   -1.44111e+01   0.00000e+00 
   @RHF iter   1:   -14.57721196991416   -1.66087e-01   1.77592e-03 DIIS
   @RHF iter   2:   -14.57773333789185   -5.21368e-04   4.86776e-04 DIIS
   @RHF iter   3:   -14.57779184592697   -5.85080e-05   8.15934e-05 DIIS
   @RHF iter   4:   -14.57779337482644   -1.52890e-06   8.78791e-06 DIIS
   @RHF iter   5:   -14.57779339020691   -1.53805e-08   7.43019e-07 DIIS
   @RHF iter   6:   -14.57779339028973   -8.28120e-11   8.29430e-08 DIIS
   @RHF iter   7:   -14.57779339029208   -2.35190e-12   1.70839e-08 DIIS
   @RHF iter   8:   -14.57779339029219   -1.10134e-13   2.86314e-10 DIIS
  Energy and wave function converged.


  ==> Post-Iterations <==

    Orbital Energies [Eh]
    ---------------------

    Doubly Occupied:                                                      

       1Ag    -2.660528     1B1u   -2.525892     2Ag    -0.208306  

    Virtual:                                                              

       1B2u    0.004460     1B3u    0.004460     2B1u    0.015977  
       3Ag     0.072251     1B2g    0.084609     1B3g    0.084609  
       3B1u    0.101985     2B2u    0.128051     2B3u    0.128051  
       4Ag     0.167398     4B1u    0.237972     5Ag     0.273786  
       2B2g    0.316930     2B3g    0.316930     5B1u    1.985103  

    Final Occupation by Irrep:
             Ag   B1g   B2g   B3g    Au   B1u   B2u   B3u 
    DOCC [     2,    0,    0,    0,    0,    1,    0,    0 ]

  @RHF Final Energy:   -14.57779339029219

   => Energetics <=

    Nuclear Repulsion Energy =              3.9688290800250008
    One-Electron Energy =                 -26.3037936691644063
    Two-Electron Energy =                   7.7571711988472192
    Total Energy =                        -14.5777933902921877

Computation Completed


Properties will be evaluated at   0.000000,   0.000000,   0.000000 [a0]

Properties computed using the SCF density matrix

  Nuclear Dipole Moment: [e a0]
     X:     0.0000      Y:     0.0000      Z:     0.0000

  Electronic Dipole Moment: [e a0]
     X:     0.0000      Y:     0.0000      Z:     0.0000

  Dipole Moment: [e a0]
     X:     0.0000      Y:     0.0000      Z:     0.0000     Total:     0.0000

  Dipole Moment: [D]
     X:     0.0000      Y:     0.0000      Z:     0.0000     Total:     0.0000


  ==> Molecular Orbitals <==

                            1            2            3            4            5

 1    LI1 s         0.6807486    0.7166948    0.1930294    0.0000000    0.0000000
 2    LI1 s         0.0309556    0.0406014   -0.2543436    0.0000000    0.0000000
 3    LI1 px        0.0000000    0.0000000    0.0000000    0.2705477    0.0000000
 4    LI1 py        0.0000000    0.0000000    0.0000000    0.0000000    0.2705477
 5    LI1 pz        0.0257707   -0.0112830    0.0364481    0.0000000    0.0000000
 6    LI1 s        -0.0061890   -0.7098077   -0.2929523    0.0000000    0.0000000
 7    LI1 px        0.0000000    0.0000000    0.0000000    0.3103886    0.0000000
 8    LI1 py        0.0000000    0.0000000    0.0000000    0.0000000    0.3103886
 9    LI1 pz       -0.0261499   -0.1313435   -0.0922414    0.0000000    0.0000000
 10   LI2 s         0.6807486   -0.7166948    0.1930294    0.0000000    0.0000000
 11   LI2 s         0.0309556   -0.0406014   -0.2543436    0.0000000    0.0000000
 12   LI2 px        0.0000000    0.0000000    0.0000000    0.2705477    0.0000000
 13   LI2 py        0.0000000    0.0000000    0.0000000    0.0000000    0.2705477
 14   LI2 pz       -0.0257707   -0.0112830   -0.0364481    0.0000000    0.0000000
 15   LI2 s        -0.0061890    0.7098077   -0.2929523    0.0000000    0.0000000
 16   LI2 px        0.0000000    0.0000000    0.0000000    0.3103886    0.0000000
 17   LI2 py        0.0000000    0.0000000    0.0000000    0.0000000    0.3103886
 18   LI2 pz        0.0261499   -0.1313435    0.0922414    0.0000000    0.0000000

            Ene    -2.6605276   -2.5258920   -0.2083061    0.0044600    0.0044600
            Sym            Ag          B1u           Ag          B3u          B2u
            Occ             2            2            2            0            0


                            6            7            8            9           10

 1    LI1 s         0.0700286    0.0753069    0.0000000    0.0000000    0.0729760
 2    LI1 s        -0.1483261   -0.0603873    0.0000000    0.0000000   -0.0718382
 3    LI1 px        0.0000000    0.0000000    0.0000000    0.0198622    0.0000000
 4    LI1 py        0.0000000    0.0000000    0.0198622    0.0000000    0.0000000
 5    LI1 pz        0.0990517   -0.0034153    0.0000000    0.0000000    0.0409432
 6    LI1 s        10.1459294    0.4568818    0.0000000    0.0000000  -81.4516630
 7    LI1 px        0.0000000    0.0000000    0.0000000    2.6389786    0.0000000
 8    LI1 py        0.0000000    0.0000000    2.6389786    0.0000000    0.0000000
 9    LI1 pz        2.4503434   -1.8001689    0.0000000    0.0000000  -16.2165972
 10   LI2 s        -0.0700286    0.0753069    0.0000000    0.0000000   -0.0729760
 11   LI2 s         0.1483261   -0.0603873    0.0000000    0.0000000    0.0718382
 12   LI2 px        0.0000000    0.0000000    0.0000000   -0.0198622    0.0000000
 13   LI2 py        0.0000000    0.0000000   -0.0198622    0.0000000    0.0000000
 14   LI2 pz        0.0990517    0.0034153    0.0000000    0.0000000    0.0409432
 15   LI2 s       -10.1459294    0.4568818    0.0000000    0.0000000   81.4516630
 16   LI2 px        0.0000000    0.0000000    0.0000000   -2.6389786    0.0000000
 17   LI2 py        0.0000000    0.0000000   -2.6389786    0.0000000    0.0000000
 18   LI2 pz        2.4503434    1.8001689    0.0000000    0.0000000  -16.2165972

            Ene     0.0159767    0.0722512    0.0846085    0.0846085    0.1019845
            Sym           B1u           Ag          B3g          B2g          B1u
            Occ             0            0            0            0            0


                           11           12           13           14           15

 1    LI1 s         0.0000000    0.0000000    0.0868317    0.1117290    0.2386893
 2    LI1 s         0.0000000    0.0000000   -1.0228025   -0.7164155    0.1789525
 3    LI1 px        0.6188284    0.0000000    0.0000000    0.0000000    0.0000000
 4    LI1 py        0.0000000    0.6188284    0.0000000    0.0000000    0.0000000
 5    LI1 pz        0.0000000    0.0000000    0.1788675    0.7328329   -1.0783464
 6    LI1 s         0.0000000    0.0000000    0.6959575   64.6990670   -0.2216030
 7    LI1 px       -0.5609252    0.0000000    0.0000000    0.0000000    0.0000000
 8    LI1 py        0.0000000   -0.5609252    0.0000000    0.0000000    0.0000000
 9    LI1 pz        0.0000000    0.0000000    0.9574958   12.2071724    0.9189447
 10   LI2 s         0.0000000    0.0000000    0.0868317   -0.1117290    0.2386893
 11   LI2 s         0.0000000    0.0000000   -1.0228025    0.7164155    0.1789525
 12   LI2 px        0.6188284    0.0000000    0.0000000    0.0000000    0.0000000
 13   LI2 py        0.0000000    0.6188284    0.0000000    0.0000000    0.0000000
 14   LI2 pz        0.0000000    0.0000000   -0.1788675    0.7328329    1.0783464
 15   LI2 s         0.0000000    0.0000000    0.6959575  -64.6990670   -0.2216030
 16   LI2 px       -0.5609252    0.0000000    0.0000000    0.0000000    0.0000000
 17   LI2 py        0.0000000   -0.5609252    0.0000000    0.0000000    0.0000000
 18   LI2 pz        0.0000000    0.0000000   -0.9574958   12.2071724   -0.9189447

            Ene     0.1280514    0.1280514    0.1673980    0.2379724    0.2737864
            Sym           B3u          B2u           Ag          B1u           Ag
            Occ             0            0            0            0            0


                          16           17           18

 1    LI1 s         0.0000000    0.0000000    0.9224728
 2    LI1 s         0.0000000    0.0000000    5.9551499
 3    LI1 px        0.0000000    1.5674652    0.0000000
 4    LI1 py        1.5674652    0.0000000    0.0000000
 5    LI1 pz        0.0000000    0.0000000    2.3135433
 6    LI1 s         0.0000000    0.0000000  -22.5996424
 7    LI1 px        0.0000000   -1.4567169    0.0000000
 8    LI1 py       -1.4567169    0.0000000    0.0000000
 9    LI1 pz        0.0000000    0.0000000   -4.3547939
 10   LI2 s         0.0000000    0.0000000   -0.9224728
 11   LI2 s         0.0000000    0.0000000   -5.9551499
 12   LI2 px        0.0000000   -1.5674652    0.0000000
 13   LI2 py       -1.5674652    0.0000000    0.0000000
 14   LI2 pz        0.0000000    0.0000000    2.3135433
 15   LI2 s         0.0000000    0.0000000   22.5996424
 16   LI2 px        0.0000000    1.4567169    0.0000000
 17   LI2 py        1.4567169    0.0000000    0.0000000
 18   LI2 pz        0.0000000    0.0000000   -4.3547939

            Ene     0.3169302    0.3169302    1.9851025
            Sym           B3g          B2g          B1u
            Occ             0            0            0


*** tstop() called on marm314 at Sun Oct 25 01:13:01 2020
Module time:
	user time   =       0.51 seconds =       0.01 minutes
	system time =       0.01 seconds =       0.00 minutes
	total time  =          0 seconds =       0.00 minutes
Total time:
	user time   =       0.51 seconds =       0.01 minutes
	system time =       0.01 seconds =       0.00 minutes
	total time  =          0 seconds =       0.00 minutes
 MINTS: Wrapper to libmints.
   by Justin Turney

   Calculation information:
      Number of threads:                 1
      Number of atoms:                   2
      Number of AO shells:              10
      Number of SO shells:               5
      Number of primitives:             18
      Number of atomic orbitals:        18
      Number of basis functions:        18

      Number of irreps:                  8
      Integral cutoff                 0.00e+00
      Number of functions per irrep: [   5    0    2    2    0    5    2    2 ]

 OEINTS: Overlap, kinetic, potential, dipole, and quadrupole integrals
         stored in file 35.

      Computing two-electron integrals...done
      Computed 2376 non-zero two-electron integrals.
        Stored in file 33.


         ---------------------------------------------------------
                          Configuration Interaction
                            (a 'D E T C I' module)

                 C. David Sherrill, Daniel G. A. Smith, and
                              Matt L. Leininger
         ---------------------------------------------------------


   ==> Parameters <==

    EX LEVEL       =        2      H0 BLOCKSIZE  =     1000
    VAL EX LEVEL   =        0      H0 GUESS SIZE =     1000
    H0COUPLINGSIZE =        0      H0 COUPLING   =       NO
    MAXITER        =       24      NUM PRINT     =       20
    NUM ROOTS      =        1      ICORE         =        1
    PRINT LVL      =        1      FCI           =       NO
    R CONV         = 1.00e-04      MIXED         =      YES
    E CONV         = 1.00e-06      MIXED4        =      YES
    R4S            =       NO      REPL OTF      =       NO
    DIAG METHOD    =      SEM      FOLLOW ROOT   =        0
    PRECONDITIONER = DAVIDSON      UPDATE        = DAVIDSON
    S              =   0.0000      Ms0           =      YES
    GUESS VECTOR   =  H0BLOCK      OPENTYPE      =     NONE
    COLLAPSE SIZE  =        1      HD AVG        = EVANGELISTI
    MAX NUM VECS   =       25      REF SYM       =     AUTO
    IOPEN        =       NO

    EX ALLOW       =  1  1 
    STATE AVERAGE  =  0(1.00) 

   ==> CI Orbital and Space information <==

    RAS1 LVL      =        2      A RAS3 MAX    =        2
    RAS1 MIN      =        4      B RAS3 MAX    =        2
    A RAS1 LVL    =        2      RAS4 LVL      =       18
    A RAS1 MIN    =        1      A RAS4 MAX    =        0
    A RAS1 MAX    =        3      B RAS4 MAX    =        0
    B RAS1 LVL    =        2      RAS4 MAX      =        0
    B RAS1 MIN    =        1      A RAS34 MAX   =        2
    B RAS1 MAX    =        3      B RAS34 MAX   =        2
    RAS3 LVL      =        3      RAS34 MAX     =        2
    RAS3 MAX      =        2
   ------------------------------------------------------------------------------
               Space    Total    Ag   B1g   B2g   B3g    Au   B1u   B2u   B3u
   ------------------------------------------------------------------------------
                 Nso       18     5     0     2     2     0     5     2     2
                 Nmo       18     5     0     2     2     0     5     2     2
               Ndocc        3     2     0     0     0     0     1     0     0
               Nsocc        0     0     0     0     0     0     0     0     0
   ------------------------------------------------------------------------------
                                   CI Spaces
   ------------------------------------------------------------------------------
        Dropped DOCC        0     0     0     0     0     0     0     0     0
                RAS1        3     2     0     0     0     0     1     0     0
                RAS2        0     0     0     0     0     0     0     0     0
                RAS3       15     3     0     2     2     0     4     2     2
                RAS4        0     0     0     0     0     0     0     0     0
      Active (total)       18     5     0     2     2     0     5     2     2
        Dropped UOCC        0     0     0     0     0     0     0     0     0
   ------------------------------------------------------------------------------

   ==> Setting up CI strings <==

    There are 361 alpha and 361 beta strings
    The CI space requires 492 (4.92E+02) determinants and 11 blocks

   ==> Transforming CI integrals <==

	Presorting SO-basis two-electron integrals.
	Sorting File: SO Ints (nn|nn) nbuckets = 1
	Transforming the one-electron integrals and constructing Fock matrices
	Starting first half-transformation.
	Sorting half-transformed integrals.
	First half integral transformation complete.
	Starting second half-transformation.
	Two-electron integral transformation complete.

   ==> Starting CI iterations <==

    H0 Block Eigenvalue = -14.62792894

    Simultaneous Expansion Method (Block Davidson Method)
    Using 1 initial trial vectors

     Iter   Root       Total Energy       Delta E      C RMS

   @CI  0:     0    -14.627928944175   -1.8597E+01   5.0031E-14  
    Warning: Norm of correction (root 0) is < 1.0E-13
   @CI  1:     0    -14.627928944175   0.0000E+00   3.4755E-14 c

   ==> Energetics <==

    SCF energy =          -14.577793390292188
    Total CI energy =     -14.627928944174508

   ==> CISD root 0 information <==

    CISD Root 0 energy =   -14.627928944174508

   The 20 most important determinants:

    *   1    0.893951  (  201,  201)  1AgX 2AgX 1B1uX 
    *   2   -0.256453  (  131,  131)  1AgX 1B1uX 1B2uX 
    *   3   -0.256453  (   83,   83)  1AgX 1B1uX 1B3uX 
    *   4   -0.102019  (    3,    3)  1AgX 1B1uX 2B1uX 
    *   5   -0.098978  (  131,  133)  1AgX 1B1uX 1B2uA 2B2uB 
    *   6   -0.098978  (  133,  131)  1AgX 1B1uX 1B2uB 2B2uA 
    *   7   -0.098978  (   83,   85)  1AgX 1B1uX 1B3uA 2B3uB 
    *   8   -0.098978  (   85,   83)  1AgX 1B1uX 1B3uB 2B3uA 
    *   9   -0.052083  (    3,    5)  1AgX 1B1uX 2B1uA 3B1uB 
    *  10   -0.052083  (    5,    3)  1AgX 1B1uX 2B1uB 3B1uA 
    *  11   -0.041618  (    3,    7)  1AgX 1B1uX 2B1uA 4B1uB 
    *  12   -0.041618  (    7,    3)  1AgX 1B1uX 2B1uB 4B1uA 
    *  13   -0.035387  (  133,  133)  1AgX 1B1uX 2B2uX 
    *  14   -0.035387  (   85,   85)  1AgX 1B1uX 2B3uX 
    *  15   -0.032865  (  201,  202)  1AgX 2AgA 1B1uX 3AgB 
    *  16   -0.032865  (  202,  201)  1AgX 2AgB 1B1uX 3AgA 
    *  17   -0.027264  (    5,    5)  1AgX 1B1uX 3B1uX 
    *  18   -0.027134  (  201,  204)  1AgX 2AgA 1B1uX 4AgB 
    *  19   -0.027134  (  204,  201)  1AgX 2AgB 1B1uX 4AgA 
    *  20   -0.024019  (  204,  204)  1AgX 1B1uX 4AgX 

		 "A good bug is a dead bug" 

			 - Starship Troopers

		 "I didn't write FORTRAN.  That's the problem."

			 - Edward Valeev
  ## MO-basis OPDM <0| Etu |0> (Symmetry 0) ##
  Irrep: 1 Size: 5 x 5

                 1                   2                   3                   4                   5

    1     1.99957426168705     0.00294277649902    -0.00073177973143    -0.00149170678475    -0.00123780606649
    2     0.00294277649902     1.60322820570406     0.05732428447902     0.04613861848459     0.01986718190332
    3    -0.00073177973143     0.05732428447902     0.00279227467478     0.00282197903546     0.00151255269749
    4    -0.00149170678475     0.04613861848459     0.00282197903546     0.00325477999786     0.00179985466862
    5    -0.00123780606649     0.01986718190332     0.00151255269749     0.00179985466862     0.00123619951625



  Irrep: 2 Size: 0 x 0

	(empty)

  Irrep: 3 Size: 2 x 2

                 1                   2

    1     0.00000360430810     0.00001103240664
    2     0.00001103240664     0.00005680827003



  Irrep: 4 Size: 2 x 2

                 1                   2

    1     0.00000360430810     0.00001103240664
    2     0.00001103240664     0.00005680827003



  Irrep: 5 Size: 0 x 0

	(empty)

  Irrep: 6 Size: 5 x 5

                 1                   2                   3                   4                   5

    1     1.99942334813015    -0.00151699287951    -0.00123085135034    -0.00208964721430    -0.00198826442144
    2    -0.00151699287951     0.02975248983742     0.01538960629716     0.01266512696792     0.00065122239228
    3    -0.00123085135034     0.01538960629716     0.00796927803524     0.00657822827590     0.00038871289626
    4    -0.00208964721430     0.01266512696792     0.00657822827590     0.00547728749032     0.00044682385489
    5    -0.00198826442144     0.00065122239228     0.00038871289626     0.00044682385489     0.00057870430905



  Irrep: 7 Size: 2 x 2

                 1                   2

    1     0.15115949335610     0.05780407722421
    2     0.05780407722421     0.02213667937468



  Irrep: 8 Size: 2 x 2

                 1                   2

    1     0.15115949335610     0.05780407722421
    2     0.05780407722421     0.02213667937468



  ## MO-basis TPDM (Symmetry 0) ##
  Irrep: 1 Size: 324 x 324

                 1                   2                   3                   4                   5

    1     0.99969416019822     0.00148897760692    -0.00036679158104    -0.00074722317406    -0.00062240803250
    2     0.00148897760692     0.00035947972854     0.00002534169711     0.00004271616519     0.00008744280261
    3    -0.00036679158104     0.00002534169711    -0.00018608740258    -0.00032884201113    -0.00063627122444
    4    -0.00074722317406     0.00004271616519    -0.00032884201113    -0.00067400344883    -0.00075948461968
    5    -0.00062240803250     0.00008744280261    -0.00063627122444    -0.00075948461968    -0.00306205428387
    6     0.00000000000000     0.00000000000000     0.00000000000000     0.00000000000000     0.00000000000000
    7     0.00000000000000     0.00000000000000     0.00000000000000     0.00000000000000     0.00000000000000
    8     0.00000000000000     0.00000000000000     0.00000000000000     0.00000000000000     0.00000000000000
    9     0.00000000000000     0.00000000000000     0.00000000000000     0.00000000000000     0.00000000000000
   10     0.00000000000000     0.00000000000000     0.00000000000000     0.00000000000000     0.00000000000000
   11     0.00000000000000     0.00000000000000     0.00000000000000     0.00000000000000     0.00000000000000
   12     0.00000000000000     0.00000000000000     0.00000000000000     0.00000000000000     0.00000000000000
   13     0.00000000000000     0.00000000000000     0.00000000000000     0.00000000000000     0.00000000000000
   14     0.00000000000000     0.00000000000000     0.00000000000000     0.00000000000000     0.00000000000000
   15     0.00000000000000     0.00000000000000     0.00000000000000     0.00000000000000     0.00000000000000
   16     0.00000000000000     0.00000000000000     0.00000000000000     0.00000000000000     0.00000000000000
   17     0.00000000000000     0.00000000000000     0.00000000000000     0.00000000000000     0.00000000000000
   18     0.00000000000000     0.00000000000000     0.00000000000000     0.00000000000000     0.00000000000000
   19     0.00148897760692    -0.80136600522499    -0.02866269712893    -0.02307122249538    -0.00993211491574
   20     1.60284805256450    -0.00000261375596    -0.00071952456221    -0.00143719850872    -0.00128004130097
   21     0.05732442373990     0.00037296723629    -0.00004947341106    -0.00047967364693     0.00069464213225
   22     0.04613795037545     0.00076963266778    -0.00011592121413    -0.00058930011685    -0.00012179971630
   23     0.01986698522632     0.00066054509547    -0.00051666870691    -0.00141806503176     0.00152319398663
   24     0.00000000000000     0.00000000000000     0.00000000000000     0.00000000000000     0.00000000000000
   25     0.00000000000000     0.00000000000000     0.00000000000000     0.00000000000000     0.00000000000000
   26     0.00000000000000     0.00000000000000     0.00000000000000     0.00000000000000     0.00000000000000
   27     0.00000000000000     0.00000000000000     0.00000000000000     0.00000000000000     0.00000000000000
   28     0.00000000000000     0.00000000000000     0.00000000000000     0.00000000000000     0.00000000000000
   29     0.00000000000000     0.00000000000000     0.00000000000000     0.00000000000000     0.00000000000000
   30     0.00000000000000     0.00000000000000     0.00000000000000     0.00000000000000     0.00000000000000
   31     0.00000000000000     0.00000000000000     0.00000000000000     0.00000000000000     0.00000000000000
   32     0.00000000000000     0.00000000000000     0.00000000000000     0.00000000000000     0.00000000000000
   33     0.00000000000000     0.00000000000000     0.00000000000000     0.00000000000000     0.00000000000000
   34     0.00000000000000     0.00000000000000     0.00000000000000     0.00000000000000     0.00000000000000
   35     0.00000000000000     0.00000000000000     0.00000000000000     0.00000000000000     0.00000000000000
   36     0.00000000000000     0.00000000000000     0.00000000000000     0.00000000000000     0.00000000000000
   37    -0.00036679158104    -0.02866269712893    -0.00139276179876    -0.00140387995619    -0.00075053305002
   38     0.05732442373990    -0.00001982643197    -0.00001740828749    -0.00002007606349    -0.00006995685552
   39     0.00278610126804     0.00000264491763    -0.00000173576207    -0.00001748781544     0.00002582167521
   40     0.00281099997453    -0.00001903160751    -0.00000411490960    -0.00002136402187    -0.00000413879361
   41     0.00149622835424     0.00003043029835    -0.00001871066145    -0.00005179437595     0.00005736518360
   42     0.00000000000000     0.00000000000000     0.00000000000000     0.00000000000000     0.00000000000000
   43     0.00000000000000     0.00000000000000     0.00000000000000     0.00000000000000     0.00000000000000
   44     0.00000000000000     0.00000000000000     0.00000000000000     0.00000000000000     0.00000000000000
   45     0.00000000000000     0.00000000000000     0.00000000000000     0.00000000000000     0.00000000000000
   46     0.00000000000000     0.00000000000000     0.00000000000000     0.00000000000000     0.00000000000000
   47     0.00000000000000     0.00000000000000     0.00000000000000     0.00000000000000     0.00000000000000
   48     0.00000000000000     0.00000000000000     0.00000000000000     0.00000000000000     0.00000000000000
   49     0.00000000000000     0.00000000000000     0.00000000000000     0.00000000000000     0.00000000000000
   50     0.00000000000000     0.00000000000000     0.00000000000000     0.00000000000000     0.00000000000000
   51     0.00000000000000     0.00000000000000     0.00000000000000     0.00000000000000     0.00000000000000
   52     0.00000000000000     0.00000000000000     0.00000000000000     0.00000000000000     0.00000000000000
   53     0.00000000000000     0.00000000000000     0.00000000000000     0.00000000000000     0.00000000000000
   54     0.00000000000000     0.00000000000000     0.00000000000000     0.00000000000000     0.00000000000000
   55    -0.00074722317406    -0.02307122249538    -0.00140387995619    -0.00161139700010    -0.00089093422205
   56     0.04613795037545    -0.00003239303807    -0.00000900840653     0.00000352886661    -0.00006396785582
   57     0.00281099997453    -0.00000981005358    -0.00000133913772    -0.00001427214777     0.00002163980469
   58     0.00323201541571    -0.00004934961809    -0.00000323133324    -0.00001729816802    -0.00000303368886
   59     0.00177548817561     0.00000581207015    -0.00001512657022    -0.00004237864891     0.00004890685745
   60     0.00000000000000     0.00000000000000     0.00000000000000     0.00000000000000     0.00000000000000
   61     0.00000000000000     0.00000000000000     0.00000000000000     0.00000000000000     0.00000000000000
   62     0.00000000000000     0.00000000000000     0.00000000000000     0.00000000000000     0.00000000000000
   63     0.00000000000000     0.00000000000000     0.00000000000000     0.00000000000000     0.00000000000000
   64     0.00000000000000     0.00000000000000     0.00000000000000     0.00000000000000     0.00000000000000
   65     0.00000000000000     0.00000000000000     0.00000000000000     0.00000000000000     0.00000000000000
   66     0.00000000000000     0.00000000000000     0.00000000000000     0.00000000000000     0.00000000000000
   67     0.00000000000000     0.00000000000000     0.00000000000000     0.00000000000000     0.00000000000000
   68     0.00000000000000     0.00000000000000     0.00000000000000     0.00000000000000     0.00000000000000
   69     0.00000000000000     0.00000000000000     0.00000000000000     0.00000000000000     0.00000000000000
   70     0.00000000000000     0.00000000000000     0.00000000000000     0.00000000000000     0.00000000000000
   71     0.00000000000000     0.00000000000000     0.00000000000000     0.00000000000000     0.00000000000000
   72     0.00000000000000     0.00000000000000     0.00000000000000     0.00000000000000     0.00000000000000
   73    -0.00062240803250    -0.00993211491574    -0.00075053305002    -0.00089093422205    -0.00059473087398
   74     0.01986698522632    -0.00002191922230     0.00000299194452     0.00002228859676    -0.00004183895206
   75     0.00149622835424    -0.00001124044261    -0.00000050697584    -0.00000614781608     0.00000983225459
   76     0.00177548817561    -0.00005429917751    -0.00000127742294    -0.00000732732513    -0.00000099641611
   77     0.00117992497656     0.00001591644193    -0.00000638635859    -0.00001835251088     0.00002295224739
   78     0.00000000000000     0.00000000000000     0.00000000000000     0.00000000000000     0.00000000000000
   79     0.00000000000000     0.00000000000000     0.00000000000000     0.00000000000000     0.00000000000000
   80     0.00000000000000     0.00000000000000     0.00000000000000     0.00000000000000     0.00000000000000
   81     0.00000000000000     0.00000000000000     0.00000000000000     0.00000000000000     0.00000000000000
   82     0.00000000000000     0.00000000000000     0.00000000000000     0.00000000000000     0.00000000000000
   83     0.00000000000000     0.00000000000000     0.00000000000000     0.00000000000000     0.00000000000000
   84     0.00000000000000     0.00000000000000     0.00000000000000     0.00000000000000     0.00000000000000
   85     0.00000000000000     0.00000000000000     0.00000000000000     0.00000000000000     0.00000000000000
   86     0.00000000000000     0.00000000000000     0.00000000000000     0.00000000000000     0.00000000000000
   87     0.00000000000000     0.00000000000000     0.00000000000000     0.00000000000000     0.00000000000000
   88     0.00000000000000     0.00000000000000     0.00000000000000     0.00000000000000     0.00000000000000
   89     0.00000000000000     0.00000000000000     0.00000000000000     0.00000000000000     0.00000000000000
   90     0.00000000000000     0.00000000000000     0.00000000000000     0.00000000000000     0.00000000000000
   91     0.00000000000000     0.00000000000000     0.00000000000000     0.00000000000000     0.00000000000000
   92     0.00000000000000     0.00000000000000     0.00000000000000     0.00000000000000     0.00000000000000
   93     0.00000000000000     0.00000000000000     0.00000000000000     0.00000000000000     0.00000000000000
   94     0.00000000000000     0.00000000000000     0.00000000000000     0.00000000000000     0.00000000000000
   95     0.00000000000000     0.00000000000000     0.00000000000000     0.00000000000000     0.00000000000000
   96     0.00000329538742    -0.00000057709978     0.00000000000000     0.00000000000000     0.00000000000000
   97     0.00000966686465    -0.00000261103209     0.00000000000000     0.00000000000000     0.00000000000000
   98     0.00000000000000     0.00000000000000     0.00000000000000     0.00000000000000     0.00000000000000
   99     0.00000000000000     0.00000000000000     0.00000000000000     0.00000000000000     0.00000000000000
  100     0.00000000000000     0.00000000000000     0.00000000000000     0.00000000000000     0.00000000000000
  101     0.00000000000000     0.00000000000000     0.00000000000000     0.00000000000000     0.00000000000000
  102     0.00000000000000     0.00000000000000     0.00000000000000     0.00000000000000     0.00000000000000
  103     0.00000000000000     0.00000000000000     0.00000000000000     0.00000000000000     0.00000000000000
  104     0.00000000000000     0.00000000000000     0.00000000000000     0.00000000000000     0.00000000000000
  105     0.00000000000000     0.00000000000000     0.00000000000000     0.00000000000000     0.00000000000000
  106     0.00000000000000     0.00000000000000     0.00000000000000     0.00000000000000     0.00000000000000
  107     0.00000000000000     0.00000000000000     0.00000000000000     0.00000000000000     0.00000000000000
  108     0.00000000000000     0.00000000000000     0.00000000000000     0.00000000000000     0.00000000000000
  109     0.00000000000000     0.00000000000000     0.00000000000000     0.00000000000000     0.00000000000000
  110     0.00000000000000     0.00000000000000     0.00000000000000     0.00000000000000     0.00000000000000
  111     0.00000000000000     0.00000000000000     0.00000000000000     0.00000000000000     0.00000000000000
  112     0.00000000000000     0.00000000000000     0.00000000000000     0.00000000000000     0.00000000000000
  113     0.00000000000000     0.00000000000000     0.00000000000000     0.00000000000000     0.00000000000000
  114     0.00000966686465    -0.00000114505756     0.00000000000000     0.00000000000000     0.00000000000000
  115     0.00004712061118    -0.00000259098817     0.00000000000000     0.00000000000000     0.00000000000000
  116     0.00000000000000     0.00000000000000     0.00000000000000     0.00000000000000     0.00000000000000
  117     0.00000000000000     0.00000000000000     0.00000000000000     0.00000000000000     0.00000000000000
  118     0.00000000000000     0.00000000000000     0.00000000000000     0.00000000000000     0.00000000000000
  119     0.00000000000000     0.00000000000000     0.00000000000000     0.00000000000000     0.00000000000000
  120     0.00000000000000     0.00000000000000     0.00000000000000     0.00000000000000     0.00000000000000
  121     0.00000000000000     0.00000000000000     0.00000000000000     0.00000000000000     0.00000000000000
  122     0.00000000000000     0.00000000000000     0.00000000000000     0.00000000000000     0.00000000000000
  123     0.00000000000000     0.00000000000000     0.00000000000000     0.00000000000000     0.00000000000000
  124     0.00000000000000     0.00000000000000     0.00000000000000     0.00000000000000     0.00000000000000
  125     0.00000000000000     0.00000000000000     0.00000000000000     0.00000000000000     0.00000000000000
  126     0.00000000000000     0.00000000000000     0.00000000000000     0.00000000000000     0.00000000000000
  127     0.00000000000000     0.00000000000000     0.00000000000000     0.00000000000000     0.00000000000000
  128     0.00000000000000     0.00000000000000     0.00000000000000     0.00000000000000     0.00000000000000
  129     0.00000000000000     0.00000000000000     0.00000000000000     0.00000000000000     0.00000000000000
  130     0.00000000000000     0.00000000000000     0.00000000000000     0.00000000000000     0.00000000000000
  131     0.00000000000000     0.00000000000000     0.00000000000000     0.00000000000000     0.00000000000000
  132     0.00000000000000     0.00000000000000     0.00000000000000     0.00000000000000     0.00000000000000
  133     0.00000000000000     0.00000000000000     0.00000000000000     0.00000000000000     0.00000000000000
  134     0.00000329538742    -0.00000057709978     0.00000000000000     0.00000000000000     0.00000000000000
  135     0.00000966686465    -0.00000261103209     0.00000000000000     0.00000000000000     0.00000000000000
  136     0.00000000000000     0.00000000000000     0.00000000000000     0.00000000000000     0.00000000000000
  137     0.00000000000000     0.00000000000000     0.00000000000000     0.00000000000000     0.00000000000000
  138     0.00000000000000     0.00000000000000     0.00000000000000     0.00000000000000     0.00000000000000
  139     0.00000000000000     0.00000000000000     0.00000000000000     0.00000000000000     0.00000000000000
  140     0.00000000000000     0.00000000000000     0.00000000000000     0.00000000000000     0.00000000000000
  141     0.00000000000000     0.00000000000000     0.00000000000000     0.00000000000000     0.00000000000000
  142     0.00000000000000     0.00000000000000     0.00000000000000     0.00000000000000     0.00000000000000
  143     0.00000000000000     0.00000000000000     0.00000000000000     0.00000000000000     0.00000000000000
  144     0.00000000000000     0.00000000000000     0.00000000000000     0.00000000000000     0.00000000000000
  145     0.00000000000000     0.00000000000000     0.00000000000000     0.00000000000000     0.00000000000000
  146     0.00000000000000     0.00000000000000     0.00000000000000     0.00000000000000     0.00000000000000
  147     0.00000000000000     0.00000000000000     0.00000000000000     0.00000000000000     0.00000000000000
  148     0.00000000000000     0.00000000000000     0.00000000000000     0.00000000000000     0.00000000000000
  149     0.00000000000000     0.00000000000000     0.00000000000000     0.00000000000000     0.00000000000000
  150     0.00000000000000     0.00000000000000     0.00000000000000     0.00000000000000     0.00000000000000
  151     0.00000000000000     0.00000000000000     0.00000000000000     0.00000000000000     0.00000000000000
  152     0.00000966686465    -0.00000114505756     0.00000000000000     0.00000000000000     0.00000000000000
  153     0.00004712061118    -0.00000259098817     0.00000000000000     0.00000000000000     0.00000000000000
  154     0.00000000000000     0.00000000000000     0.00000000000000     0.00000000000000     0.00000000000000
  155     0.00000000000000     0.00000000000000     0.00000000000000     0.00000000000000     0.00000000000000
  156     0.00000000000000     0.00000000000000     0.00000000000000     0.00000000000000     0.00000000000000
  157     0.00000000000000     0.00000000000000     0.00000000000000     0.00000000000000     0.00000000000000
  158     0.00000000000000     0.00000000000000     0.00000000000000     0.00000000000000     0.00000000000000
  159     0.00000000000000     0.00000000000000     0.00000000000000     0.00000000000000     0.00000000000000
  160     0.00000000000000     0.00000000000000     0.00000000000000     0.00000000000000     0.00000000000000
  161     0.00000000000000     0.00000000000000     0.00000000000000     0.00000000000000     0.00000000000000
  162     0.00000000000000     0.00000000000000     0.00000000000000     0.00000000000000     0.00000000000000
  163     0.00000000000000     0.00000000000000     0.00000000000000     0.00000000000000     0.00000000000000
  164     0.00000000000000     0.00000000000000     0.00000000000000     0.00000000000000     0.00000000000000
  165     0.00000000000000     0.00000000000000     0.00000000000000     0.00000000000000     0.00000000000000
  166     0.00000000000000     0.00000000000000     0.00000000000000     0.00000000000000     0.00000000000000
  167     0.00000000000000     0.00000000000000     0.00000000000000     0.00000000000000     0.00000000000000
  168     0.00000000000000     0.00000000000000     0.00000000000000     0.00000000000000     0.00000000000000
  169     0.00000000000000     0.00000000000000     0.00000000000000     0.00000000000000     0.00000000000000
  170     0.00000000000000     0.00000000000000     0.00000000000000     0.00000000000000     0.00000000000000
  171     0.00000000000000     0.00000000000000     0.00000000000000     0.00000000000000     0.00000000000000
  172     1.99904366901865     0.00297103574246    -0.00073397017417    -0.00149687302925    -0.00124069189114
  173    -0.00151771921471     0.00002760427676    -0.00021671958372    -0.00058362492832    -0.00014357314237
  174    -0.00123158748207     0.00002683804287    -0.00021105989479    -0.00053741786170    -0.00020663390378
  175    -0.00209080240025     0.00004702537626    -0.00037674172439    -0.00106110303677    -0.00007227785675
  176    -0.00199276453331     0.00014803225544    -0.00117437746291    -0.00251472200049    -0.00213076733289
  177     0.00000000000000     0.00000000000000     0.00000000000000     0.00000000000000     0.00000000000000
  178     0.00000000000000     0.00000000000000     0.00000000000000     0.00000000000000     0.00000000000000
  179     0.00000000000000     0.00000000000000     0.00000000000000     0.00000000000000     0.00000000000000
  180     0.00000000000000     0.00000000000000     0.00000000000000     0.00000000000000     0.00000000000000
  181     0.00000000000000     0.00000000000000     0.00000000000000     0.00000000000000     0.00000000000000
  182     0.00000000000000     0.00000000000000     0.00000000000000     0.00000000000000     0.00000000000000
  183     0.00000000000000     0.00000000000000     0.00000000000000     0.00000000000000     0.00000000000000
  184     0.00000000000000     0.00000000000000     0.00000000000000     0.00000000000000     0.00000000000000
  185     0.00000000000000     0.00000000000000     0.00000000000000     0.00000000000000     0.00000000000000
  186     0.00000000000000     0.00000000000000     0.00000000000000     0.00000000000000     0.00000000000000
  187     0.00000000000000     0.00000000000000     0.00000000000000     0.00000000000000     0.00000000000000
  188     0.00000000000000     0.00000000000000     0.00000000000000     0.00000000000000     0.00000000000000
  189     0.00000000000000     0.00000000000000     0.00000000000000     0.00000000000000     0.00000000000000
  190    -0.00151771921471    -0.00000108767773     0.00000418069629     0.00000959081693     0.00000668295438
  191     0.02974388799649     0.00000708135790     0.00000019407750     0.00000052264989     0.00000012857314
  192     0.01538171664202    -0.00001139352897     0.00000018900912     0.00000048127037     0.00000018504554
  193     0.01265072218356    -0.00000180174554     0.00000033738110     0.00000095024280     0.00000006472653
  194     0.00061245343534    -0.00022724076437     0.00000105168272     0.00000225199288     0.00000190815241
  195     0.00000000000000     0.00000000000000     0.00000000000000     0.00000000000000     0.00000000000000
  196     0.00000000000000     0.00000000000000     0.00000000000000     0.00000000000000     0.00000000000000
  197     0.00000000000000     0.00000000000000     0.00000000000000     0.00000000000000     0.00000000000000
  198     0.00000000000000     0.00000000000000     0.00000000000000     0.00000000000000     0.00000000000000
  199     0.00000000000000     0.00000000000000     0.00000000000000     0.00000000000000     0.00000000000000
  200     0.00000000000000     0.00000000000000     0.00000000000000     0.00000000000000     0.00000000000000
  201     0.00000000000000     0.00000000000000     0.00000000000000     0.00000000000000     0.00000000000000
  202     0.00000000000000     0.00000000000000     0.00000000000000     0.00000000000000     0.00000000000000
  203     0.00000000000000     0.00000000000000     0.00000000000000     0.00000000000000     0.00000000000000
  204     0.00000000000000     0.00000000000000     0.00000000000000     0.00000000000000     0.00000000000000
  205     0.00000000000000     0.00000000000000     0.00000000000000     0.00000000000000     0.00000000000000
  206     0.00000000000000     0.00000000000000     0.00000000000000     0.00000000000000     0.00000000000000
  207     0.00000000000000     0.00000000000000     0.00000000000000     0.00000000000000     0.00000000000000
  208    -0.00123158748207    -0.00000090870749     0.00000394627765     0.00000896045411     0.00000638758663
  209     0.01538171664202     0.00000188643772     0.00000015767186     0.00000042460966     0.00000010445500
  210     0.00796193463666    -0.00000762409683     0.00000015355422     0.00000039099224     0.00000015033414
  211     0.00656464154628    -0.00000387637694     0.00000027409414     0.00000077199341     0.00000005258493
  212     0.00035091813353    -0.00012815895119     0.00000085440493     0.00000182955731     0.00000155021547
  213     0.00000000000000     0.00000000000000     0.00000000000000     0.00000000000000     0.00000000000000
  214     0.00000000000000     0.00000000000000     0.00000000000000     0.00000000000000     0.00000000000000
  215     0.00000000000000     0.00000000000000     0.00000000000000     0.00000000000000     0.00000000000000
  216     0.00000000000000     0.00000000000000     0.00000000000000     0.00000000000000     0.00000000000000
  217     0.00000000000000     0.00000000000000     0.00000000000000     0.00000000000000     0.00000000000000
  218     0.00000000000000     0.00000000000000     0.00000000000000     0.00000000000000     0.00000000000000
  219     0.00000000000000     0.00000000000000     0.00000000000000     0.00000000000000     0.00000000000000
  220     0.00000000000000     0.00000000000000     0.00000000000000     0.00000000000000     0.00000000000000
  221     0.00000000000000     0.00000000000000     0.00000000000000     0.00000000000000     0.00000000000000
  222     0.00000000000000     0.00000000000000     0.00000000000000     0.00000000000000     0.00000000000000
  223     0.00000000000000     0.00000000000000     0.00000000000000     0.00000000000000     0.00000000000000
  224     0.00000000000000     0.00000000000000     0.00000000000000     0.00000000000000     0.00000000000000
  225     0.00000000000000     0.00000000000000     0.00000000000000     0.00000000000000     0.00000000000000
  226    -0.00209080240025    -0.00000261186384     0.00000809177332     0.00001909876074     0.00000869219922
  227     0.01265072218356    -0.00000225946751     0.00000026116708     0.00000070332186     0.00000017301888
  228     0.00656464154628    -0.00001000940913     0.00000025434664     0.00000064763808     0.00000024901291
  229     0.00545131652852    -0.00000924653741     0.00000045400852     0.00000127872701     0.00000008710148
  230     0.00037345521768    -0.00012883903068     0.00000141523314     0.00000303047192     0.00000256777114
  231     0.00000000000000     0.00000000000000     0.00000000000000     0.00000000000000     0.00000000000000
  232     0.00000000000000     0.00000000000000     0.00000000000000     0.00000000000000     0.00000000000000
  233     0.00000000000000     0.00000000000000     0.00000000000000     0.00000000000000     0.00000000000000
  234     0.00000000000000     0.00000000000000     0.00000000000000     0.00000000000000     0.00000000000000
  235     0.00000000000000     0.00000000000000     0.00000000000000     0.00000000000000     0.00000000000000
  236     0.00000000000000     0.00000000000000     0.00000000000000     0.00000000000000     0.00000000000000
  237     0.00000000000000     0.00000000000000     0.00000000000000     0.00000000000000     0.00000000000000
  238     0.00000000000000     0.00000000000000     0.00000000000000     0.00000000000000     0.00000000000000
  239     0.00000000000000     0.00000000000000     0.00000000000000     0.00000000000000     0.00000000000000
  240     0.00000000000000     0.00000000000000     0.00000000000000     0.00000000000000     0.00000000000000
  241     0.00000000000000     0.00000000000000     0.00000000000000     0.00000000000000     0.00000000000000
  242     0.00000000000000     0.00000000000000     0.00000000000000     0.00000000000000     0.00000000000000
  243     0.00000000000000     0.00000000000000     0.00000000000000     0.00000000000000     0.00000000000000
  244    -0.00199276453331    -0.00000262335110     0.00002102400241     0.00004589651793     0.00003318416069
  245     0.00061245343534    -0.00001453004445     0.00000025628957     0.00000069018675     0.00000016978761
  246     0.00035091813353    -0.00001441447321     0.00000024959650     0.00000063554291     0.00000024436239
  247     0.00037345521768    -0.00002604122294     0.00000044552954     0.00000125484573     0.00000008547479
  248     0.00035053240239    -0.00008771829316     0.00000138880250     0.00000297387536     0.00000251981589
  249     0.00000000000000     0.00000000000000     0.00000000000000     0.00000000000000     0.00000000000000
  250     0.00000000000000     0.00000000000000     0.00000000000000     0.00000000000000     0.00000000000000
  251     0.00000000000000     0.00000000000000     0.00000000000000     0.00000000000000     0.00000000000000
  252     0.00000000000000     0.00000000000000     0.00000000000000     0.00000000000000     0.00000000000000
  253     0.00000000000000     0.00000000000000     0.00000000000000     0.00000000000000     0.00000000000000
  254     0.00000000000000     0.00000000000000     0.00000000000000     0.00000000000000     0.00000000000000
  255     0.00000000000000     0.00000000000000     0.00000000000000     0.00000000000000     0.00000000000000
  256     0.00000000000000     0.00000000000000     0.00000000000000     0.00000000000000     0.00000000000000
  257     0.00000000000000     0.00000000000000     0.00000000000000     0.00000000000000     0.00000000000000
  258     0.00000000000000     0.00000000000000     0.00000000000000     0.00000000000000     0.00000000000000
  259     0.00000000000000     0.00000000000000     0.00000000000000     0.00000000000000     0.00000000000000
  260     0.00000000000000     0.00000000000000     0.00000000000000     0.00000000000000     0.00000000000000
  261     0.00000000000000     0.00000000000000     0.00000000000000     0.00000000000000     0.00000000000000
  262     0.00000000000000     0.00000000000000     0.00000000000000     0.00000000000000     0.00000000000000
  263     0.00000000000000     0.00000000000000     0.00000000000000     0.00000000000000     0.00000000000000
  264     0.00000000000000     0.00000000000000     0.00000000000000     0.00000000000000     0.00000000000000
  265     0.00000000000000     0.00000000000000     0.00000000000000     0.00000000000000     0.00000000000000
  266     0.00000000000000     0.00000000000000     0.00000000000000     0.00000000000000     0.00000000000000
  267     0.15114912836124     0.00107715792821     0.00000000000000     0.00000000000000     0.00000000000000
  268     0.05779257715391     0.00115519740715     0.00000000000000     0.00000000000000     0.00000000000000
  269     0.00000000000000     0.00000000000000     0.00000000000000     0.00000000000000     0.00000000000000
  270     0.00000000000000     0.00000000000000     0.00000000000000     0.00000000000000     0.00000000000000
  271     0.00000000000000     0.00000000000000     0.00000000000000     0.00000000000000     0.00000000000000
  272     0.00000000000000     0.00000000000000     0.00000000000000     0.00000000000000     0.00000000000000
  273     0.00000000000000     0.00000000000000     0.00000000000000     0.00000000000000     0.00000000000000
  274     0.00000000000000     0.00000000000000     0.00000000000000     0.00000000000000     0.00000000000000
  275     0.00000000000000     0.00000000000000     0.00000000000000     0.00000000000000     0.00000000000000
  276     0.00000000000000     0.00000000000000     0.00000000000000     0.00000000000000     0.00000000000000
  277     0.00000000000000     0.00000000000000     0.00000000000000     0.00000000000000     0.00000000000000
  278     0.00000000000000     0.00000000000000     0.00000000000000     0.00000000000000     0.00000000000000
  279     0.00000000000000     0.00000000000000     0.00000000000000     0.00000000000000     0.00000000000000
  280     0.00000000000000     0.00000000000000     0.00000000000000     0.00000000000000     0.00000000000000
  281     0.00000000000000     0.00000000000000     0.00000000000000     0.00000000000000     0.00000000000000
  282     0.00000000000000     0.00000000000000     0.00000000000000     0.00000000000000     0.00000000000000
  283     0.00000000000000     0.00000000000000     0.00000000000000     0.00000000000000     0.00000000000000
  284     0.00000000000000     0.00000000000000     0.00000000000000     0.00000000000000     0.00000000000000
  285     0.05779257715391     0.00040882400965     0.00000000000000     0.00000000000000     0.00000000000000
  286     0.02212248524612     0.00043992890081     0.00000000000000     0.00000000000000     0.00000000000000
  287     0.00000000000000     0.00000000000000     0.00000000000000     0.00000000000000     0.00000000000000
  288     0.00000000000000     0.00000000000000     0.00000000000000     0.00000000000000     0.00000000000000
  289     0.00000000000000     0.00000000000000     0.00000000000000     0.00000000000000     0.00000000000000
  290     0.00000000000000     0.00000000000000     0.00000000000000     0.00000000000000     0.00000000000000
  291     0.00000000000000     0.00000000000000     0.00000000000000     0.00000000000000     0.00000000000000
  292     0.00000000000000     0.00000000000000     0.00000000000000     0.00000000000000     0.00000000000000
  293     0.00000000000000     0.00000000000000     0.00000000000000     0.00000000000000     0.00000000000000
  294     0.00000000000000     0.00000000000000     0.00000000000000     0.00000000000000     0.00000000000000
  295     0.00000000000000     0.00000000000000     0.00000000000000     0.00000000000000     0.00000000000000
  296     0.00000000000000     0.00000000000000     0.00000000000000     0.00000000000000     0.00000000000000
  297     0.00000000000000     0.00000000000000     0.00000000000000     0.00000000000000     0.00000000000000
  298     0.00000000000000     0.00000000000000     0.00000000000000     0.00000000000000     0.00000000000000
  299     0.00000000000000     0.00000000000000     0.00000000000000     0.00000000000000     0.00000000000000
  300     0.00000000000000     0.00000000000000     0.00000000000000     0.00000000000000     0.00000000000000
  301     0.00000000000000     0.00000000000000     0.00000000000000     0.00000000000000     0.00000000000000
  302     0.00000000000000     0.00000000000000     0.00000000000000     0.00000000000000     0.00000000000000
  303     0.00000000000000     0.00000000000000     0.00000000000000     0.00000000000000     0.00000000000000
  304     0.00000000000000     0.00000000000000     0.00000000000000     0.00000000000000     0.00000000000000
  305     0.15114912836123     0.00107715792821     0.00000000000000     0.00000000000000     0.00000000000000
  306     0.05779257715391     0.00115519740715     0.00000000000000     0.00000000000000     0.00000000000000
  307     0.00000000000000     0.00000000000000     0.00000000000000     0.00000000000000     0.00000000000000
  308     0.00000000000000     0.00000000000000     0.00000000000000     0.00000000000000     0.00000000000000
  309     0.00000000000000     0.00000000000000     0.00000000000000     0.00000000000000     0.00000000000000
  310     0.00000000000000     0.00000000000000     0.00000000000000     0.00000000000000     0.00000000000000
  311     0.00000000000000     0.00000000000000     0.00000000000000     0.00000000000000     0.00000000000000
  312     0.00000000000000     0.00000000000000     0.00000000000000     0.00000000000000     0.00000000000000
  313     0.00000000000000     0.00000000000000     0.00000000000000     0.00000000000000     0.00000000000000
  314     0.00000000000000     0.00000000000000     0.00000000000000     0.00000000000000     0.00000000000000
  315     0.00000000000000     0.00000000000000     0.00000000000000     0.00000000000000     0.00000000000000
  316     0.00000000000000     0.00000000000000     0.00000000000000     0.00000000000000     0.00000000000000
  317     0.00000000000000     0.00000000000000     0.00000000000000     0.00000000000000     0.00000000000000
  318     0.00000000000000     0.00000000000000     0.00000000000000     0.00000000000000     0.00000000000000
  319     0.00000000000000     0.00000000000000     0.00000000000000     0.00000000000000     0.00000000000000
  320     0.00000000000000     0.00000000000000     0.00000000000000     0.00000000000000     0.00000000000000
  321     0.00000000000000     0.00000000000000     0.00000000000000     0.00000000000000     0.00000000000000
  322     0.00000000000000     0.00000000000000     0.00000000000000     0.00000000000000     0.00000000000000
  323     0.05779257715391     0.00040882400965     0.00000000000000     0.00000000000000     0.00000000000000
  324     0.02212248524612     0.00043992890081     0.00000000000000     0.00000000000000     0.00000000000000

                 6                   7                   8                   9                  10

    1     0.00000000000000     0.00000000000000     0.00000000000000     0.00000000000000     0.00000000000000
    2     0.00000000000000     0.00000000000000     0.00000000000000     0.00000000000000     0.00000000000000
    3     0.00000000000000     0.00000000000000     0.00000000000000     0.00000000000000     0.00000000000000
    4     0.00000000000000     0.00000000000000     0.00000000000000     0.00000000000000     0.00000000000000
    5     0.00000000000000     0.00000000000000     0.00000000000000     0.00000000000000     0.00000000000000
    6    -0.00000307643538    -0.00006390631176     0.00000000000000     0.00000000000000     0.00000000000000
    7    -0.00006390631176    -0.00078663741671     0.00000000000000     0.00000000000000     0.00000000000000
    8     0.00000000000000     0.00000000000000    -0.00000307643538    -0.00006390631176     0.00000000000000
    9     0.00000000000000     0.00000000000000    -0.00006390631176    -0.00078663741671     0.00000000000000
   10     0.00000000000000     0.00000000000000     0.00000000000000     0.00000000000000     0.00013958029193
   11     0.00000000000000     0.00000000000000     0.00000000000000     0.00000000000000    -0.00000235780840
   12     0.00000000000000     0.00000000000000     0.00000000000000     0.00000000000000    -0.00000236537405
   13     0.00000000000000     0.00000000000000     0.00000000000000     0.00000000000000    -0.00000484740119
   14     0.00000000000000     0.00000000000000     0.00000000000000     0.00000000000000    -0.00001434414314
   15     0.00000000000000     0.00000000000000     0.00000000000000     0.00000000000000     0.00000000000000
   16     0.00000000000000     0.00000000000000     0.00000000000000     0.00000000000000     0.00000000000000
   17     0.00000000000000     0.00000000000000     0.00000000000000     0.00000000000000     0.00000000000000
   18     0.00000000000000     0.00000000000000     0.00000000000000     0.00000000000000     0.00000000000000
   19     0.00000000000000     0.00000000000000     0.00000000000000     0.00000000000000     0.00000000000000
   20     0.00000000000000     0.00000000000000     0.00000000000000     0.00000000000000     0.00000000000000
   21     0.00000000000000     0.00000000000000     0.00000000000000     0.00000000000000     0.00000000000000
   22     0.00000000000000     0.00000000000000     0.00000000000000     0.00000000000000     0.00000000000000
   23     0.00000000000000     0.00000000000000     0.00000000000000     0.00000000000000     0.00000000000000
   24     0.00003750406946     0.00061020440483     0.00000000000000     0.00000000000000     0.00000000000000
   25    -0.00006105413708     0.00154191174708     0.00000000000000     0.00000000000000     0.00000000000000
   26     0.00000000000000     0.00000000000000     0.00003750406946     0.00061020440483     0.00000000000000
   27     0.00000000000000     0.00000000000000    -0.00006105413708     0.00154191174708     0.00000000000000
   28     0.00000000000000     0.00000000000000     0.00000000000000     0.00000000000000     0.00002657545187
   29     0.00000000000000     0.00000000000000     0.00000000000000     0.00000000000000     0.00000165855096
   30     0.00000000000000     0.00000000000000     0.00000000000000     0.00000000000000     0.00000093399721
   31     0.00000000000000     0.00000000000000     0.00000000000000     0.00000000000000     0.00000030062740
   32     0.00000000000000     0.00000000000000     0.00000000000000     0.00000000000000    -0.00000756117200
   33     0.00000000000000     0.00000000000000     0.00000000000000     0.00000000000000     0.00000000000000
   34     0.00000000000000     0.00000000000000     0.00000000000000     0.00000000000000     0.00000000000000
   35     0.00000000000000     0.00000000000000     0.00000000000000     0.00000000000000     0.00000000000000
   36     0.00000000000000     0.00000000000000     0.00000000000000     0.00000000000000     0.00000000000000
   37     0.00000000000000     0.00000000000000     0.00000000000000     0.00000000000000     0.00000000000000
   38     0.00000000000000     0.00000000000000     0.00000000000000     0.00000000000000     0.00000000000000
   39     0.00000000000000     0.00000000000000     0.00000000000000     0.00000000000000     0.00000000000000
   40     0.00000000000000     0.00000000000000     0.00000000000000     0.00000000000000     0.00000000000000
   41     0.00000000000000     0.00000000000000     0.00000000000000     0.00000000000000     0.00000000000000
   42     0.00000138016375     0.00002246193285     0.00000000000000     0.00000000000000     0.00000000000000
   43    -0.00000221605269     0.00005703760998     0.00000000000000     0.00000000000000     0.00000000000000
   44     0.00000000000000     0.00000000000000     0.00000138016375     0.00002246193285     0.00000000000000
   45     0.00000000000000     0.00000000000000    -0.00000221605269     0.00005703760998     0.00000000000000
   46     0.00000000000000     0.00000000000000     0.00000000000000     0.00000000000000    -0.00000107133006
   47     0.00000000000000     0.00000000000000     0.00000000000000     0.00000000000000    -0.00000664352956
   48     0.00000000000000     0.00000000000000     0.00000000000000     0.00000000000000    -0.00000659808252
   49     0.00000000000000     0.00000000000000     0.00000000000000     0.00000000000000    -0.00001232206916
   50     0.00000000000000     0.00000000000000     0.00000000000000     0.00000000000000    -0.00004102076272
   51     0.00000000000000     0.00000000000000     0.00000000000000     0.00000000000000     0.00000000000000
   52     0.00000000000000     0.00000000000000     0.00000000000000     0.00000000000000     0.00000000000000
   53     0.00000000000000     0.00000000000000     0.00000000000000     0.00000000000000     0.00000000000000
   54     0.00000000000000     0.00000000000000     0.00000000000000     0.00000000000000     0.00000000000000
   55     0.00000000000000     0.00000000000000     0.00000000000000     0.00000000000000     0.00000000000000
   56     0.00000000000000     0.00000000000000     0.00000000000000     0.00000000000000     0.00000000000000
   57     0.00000000000000     0.00000000000000     0.00000000000000     0.00000000000000     0.00000000000000
   58     0.00000000000000     0.00000000000000     0.00000000000000     0.00000000000000     0.00000000000000
   59     0.00000000000000     0.00000000000000     0.00000000000000     0.00000000000000     0.00000000000000
   60     0.00000114103080     0.00001857706892     0.00000000000000     0.00000000000000     0.00000000000000
   61    -0.00000179734070     0.00004748791141     0.00000000000000     0.00000000000000     0.00000000000000
   62     0.00000000000000     0.00000000000000     0.00000114103080     0.00001857706892     0.00000000000000
   63     0.00000000000000     0.00000000000000    -0.00000179734070     0.00004748791141     0.00000000000000
   64     0.00000000000000     0.00000000000000     0.00000000000000     0.00000000000000    -0.00000170068997
   65     0.00000000000000     0.00000000000000     0.00000000000000     0.00000000000000    -0.00001272993633
   66     0.00000000000000     0.00000000000000     0.00000000000000     0.00000000000000    -0.00001244819214
   67     0.00000000000000     0.00000000000000     0.00000000000000     0.00000000000000    -0.00002385781449
   68     0.00000000000000     0.00000000000000     0.00000000000000     0.00000000000000    -0.00007454265733
   69     0.00000000000000     0.00000000000000     0.00000000000000     0.00000000000000     0.00000000000000
   70     0.00000000000000     0.00000000000000     0.00000000000000     0.00000000000000     0.00000000000000
   71     0.00000000000000     0.00000000000000     0.00000000000000     0.00000000000000     0.00000000000000
   72     0.00000000000000     0.00000000000000     0.00000000000000     0.00000000000000     0.00000000000000
   73     0.00000000000000     0.00000000000000     0.00000000000000     0.00000000000000     0.00000000000000
   74     0.00000000000000     0.00000000000000     0.00000000000000     0.00000000000000     0.00000000000000
   75     0.00000000000000     0.00000000000000     0.00000000000000     0.00000000000000     0.00000000000000
   76     0.00000000000000     0.00000000000000     0.00000000000000     0.00000000000000     0.00000000000000
   77     0.00000000000000     0.00000000000000     0.00000000000000     0.00000000000000     0.00000000000000
   78     0.00000050472326     0.00000822359531     0.00000000000000     0.00000000000000     0.00000000000000
   79    -0.00000076409165     0.00002130220883     0.00000000000000     0.00000000000000     0.00000000000000
   80     0.00000000000000     0.00000000000000     0.00000050472326     0.00000822359531     0.00000000000000
   81     0.00000000000000     0.00000000000000    -0.00000076409165     0.00002130220883     0.00000000000000
   82     0.00000000000000     0.00000000000000     0.00000000000000     0.00000000000000    -0.00000387485183
   83     0.00000000000000     0.00000000000000     0.00000000000000     0.00000000000000    -0.00001867660389
   84     0.00000000000000     0.00000000000000     0.00000000000000     0.00000000000000    -0.00001828660800
   85     0.00000000000000     0.00000000000000     0.00000000000000     0.00000000000000    -0.00003127072977
   86     0.00000000000000     0.00000000000000     0.00000000000000     0.00000000000000    -0.00010700908004
   87     0.00000000000000     0.00000000000000     0.00000000000000     0.00000000000000     0.00000000000000
   88     0.00000000000000     0.00000000000000     0.00000000000000     0.00000000000000     0.00000000000000
   89     0.00000000000000     0.00000000000000     0.00000000000000     0.00000000000000     0.00000000000000
   90     0.00000000000000     0.00000000000000     0.00000000000000     0.00000000000000     0.00000000000000
   91    -0.00000178957828    -0.00000552862220     0.00000000000000     0.00000000000000     0.00000000000000
   92    -0.00000014442844     0.00000100408425     0.00000000000000     0.00000000000000     0.00000000000000
   93     0.00000000000000     0.00000000000000     0.00000000000000     0.00000000000000     0.00000000000000
   94     0.00000000000000     0.00000000000000     0.00000000000000     0.00000000000000     0.00000000000000
   95     0.00000000000000     0.00000000000000     0.00000000000000     0.00000000000000     0.00000000000000
   96     0.00000000000000     0.00000000000000     0.00000000000000     0.00000000000000     0.00000000000000
   97     0.00000000000000     0.00000000000000     0.00000000000000     0.00000000000000     0.00000000000000
   98     0.00000000000000     0.00000000000000     0.00000000000000     0.00000000000000     0.00000000000000
   99     0.00000000000000     0.00000000000000     0.00000000000000     0.00000000000000     0.00000000000000
  100     0.00000000000000     0.00000000000000     0.00000000000000     0.00000000000000     0.00000000000000
  101     0.00000000000000     0.00000000000000     0.00000000000000     0.00000000000000     0.00000000000000
  102     0.00000000000000     0.00000000000000     0.00000000000000     0.00000000000000     0.00000000000000
  103     0.00000000000000     0.00000000000000     0.00000000000000     0.00000000000000     0.00000000000000
  104     0.00000000000000     0.00000000000000     0.00000000000000     0.00000000000000     0.00000000000000
  105     0.00000000000000     0.00000000000000     0.00000000000000     0.00000000000000     0.00000000000000
  106     0.00000000000000     0.00000000000000     0.00000000000000     0.00000000000000     0.00000000000000
  107     0.00000000000000     0.00000000000000     0.00000000000000     0.00000000000000    -0.00000173138316
  108     0.00000000000000     0.00000000000000     0.00000000000000     0.00000000000000    -0.00000192203988
  109    -0.00000552862220    -0.00002400341735     0.00000000000000     0.00000000000000     0.00000000000000
  110    -0.00000027834722     0.00000362834698     0.00000000000000     0.00000000000000     0.00000000000000
  111     0.00000000000000     0.00000000000000     0.00000000000000     0.00000000000000     0.00000000000000
  112     0.00000000000000     0.00000000000000     0.00000000000000     0.00000000000000     0.00000000000000
  113     0.00000000000000     0.00000000000000     0.00000000000000     0.00000000000000     0.00000000000000
  114     0.00000000000000     0.00000000000000     0.00000000000000     0.00000000000000     0.00000000000000
  115     0.00000000000000     0.00000000000000     0.00000000000000     0.00000000000000     0.00000000000000
  116     0.00000000000000     0.00000000000000     0.00000000000000     0.00000000000000     0.00000000000000
  117     0.00000000000000     0.00000000000000     0.00000000000000     0.00000000000000     0.00000000000000
  118     0.00000000000000     0.00000000000000     0.00000000000000     0.00000000000000     0.00000000000000
  119     0.00000000000000     0.00000000000000     0.00000000000000     0.00000000000000     0.00000000000000
  120     0.00000000000000     0.00000000000000     0.00000000000000     0.00000000000000     0.00000000000000
  121     0.00000000000000     0.00000000000000     0.00000000000000     0.00000000000000     0.00000000000000
  122     0.00000000000000     0.00000000000000     0.00000000000000     0.00000000000000     0.00000000000000
  123     0.00000000000000     0.00000000000000     0.00000000000000     0.00000000000000     0.00000000000000
  124     0.00000000000000     0.00000000000000     0.00000000000000     0.00000000000000     0.00000000000000
  125     0.00000000000000     0.00000000000000     0.00000000000000     0.00000000000000    -0.00000982259697
  126     0.00000000000000     0.00000000000000     0.00000000000000     0.00000000000000    -0.00001335132641
  127     0.00000000000000     0.00000000000000    -0.00000178957828    -0.00000552862220     0.00000000000000
  128     0.00000000000000     0.00000000000000    -0.00000014442844     0.00000100408425     0.00000000000000
  129     0.00000000000000     0.00000000000000     0.00000000000000     0.00000000000000     0.00000000000000
  130     0.00000000000000     0.00000000000000     0.00000000000000     0.00000000000000     0.00000000000000
  131     0.00000000000000     0.00000000000000     0.00000000000000     0.00000000000000     0.00000000000000
  132     0.00000000000000     0.00000000000000     0.00000000000000     0.00000000000000     0.00000000000000
  133     0.00000000000000     0.00000000000000     0.00000000000000     0.00000000000000     0.00000000000000
  134     0.00000000000000     0.00000000000000     0.00000000000000     0.00000000000000     0.00000000000000
  135     0.00000000000000     0.00000000000000     0.00000000000000     0.00000000000000     0.00000000000000
  136     0.00000000000000     0.00000000000000     0.00000000000000     0.00000000000000     0.00000000000000
  137     0.00000000000000     0.00000000000000     0.00000000000000     0.00000000000000     0.00000000000000
  138     0.00000000000000     0.00000000000000     0.00000000000000     0.00000000000000     0.00000000000000
  139     0.00000000000000     0.00000000000000     0.00000000000000     0.00000000000000     0.00000000000000
  140     0.00000000000000     0.00000000000000     0.00000000000000     0.00000000000000     0.00000000000000
  141     0.00000000000000     0.00000000000000     0.00000000000000     0.00000000000000    -0.00000173138316
  142     0.00000000000000     0.00000000000000     0.00000000000000     0.00000000000000    -0.00000192203988
  143     0.00000000000000     0.00000000000000     0.00000000000000     0.00000000000000     0.00000000000000
  144     0.00000000000000     0.00000000000000     0.00000000000000     0.00000000000000     0.00000000000000
  145     0.00000000000000     0.00000000000000    -0.00000552862220    -0.00002400341735     0.00000000000000
  146     0.00000000000000     0.00000000000000    -0.00000027834722     0.00000362834698     0.00000000000000
  147     0.00000000000000     0.00000000000000     0.00000000000000     0.00000000000000     0.00000000000000
  148     0.00000000000000     0.00000000000000     0.00000000000000     0.00000000000000     0.00000000000000
  149     0.00000000000000     0.00000000000000     0.00000000000000     0.00000000000000     0.00000000000000
  150     0.00000000000000     0.00000000000000     0.00000000000000     0.00000000000000     0.00000000000000
  151     0.00000000000000     0.00000000000000     0.00000000000000     0.00000000000000     0.00000000000000
  152     0.00000000000000     0.00000000000000     0.00000000000000     0.00000000000000     0.00000000000000
  153     0.00000000000000     0.00000000000000     0.00000000000000     0.00000000000000     0.00000000000000
  154     0.00000000000000     0.00000000000000     0.00000000000000     0.00000000000000     0.00000000000000
  155     0.00000000000000     0.00000000000000     0.00000000000000     0.00000000000000     0.00000000000000
  156     0.00000000000000     0.00000000000000     0.00000000000000     0.00000000000000     0.00000000000000
  157     0.00000000000000     0.00000000000000     0.00000000000000     0.00000000000000     0.00000000000000
  158     0.00000000000000     0.00000000000000     0.00000000000000     0.00000000000000     0.00000000000000
  159     0.00000000000000     0.00000000000000     0.00000000000000     0.00000000000000    -0.00000982259697
  160     0.00000000000000     0.00000000000000     0.00000000000000     0.00000000000000    -0.00001335132641
  161     0.00000000000000     0.00000000000000     0.00000000000000     0.00000000000000     0.00000000000000
  162     0.00000000000000     0.00000000000000     0.00000000000000     0.00000000000000     0.00000000000000
  163     0.00000000000000     0.00000000000000     0.00000000000000     0.00000000000000    -0.99945513128141
  164     0.00000000000000     0.00000000000000     0.00000000000000     0.00000000000000    -0.00144390744689
  165     0.00000000000000     0.00000000000000     0.00000000000000     0.00000000000000     0.00036362231352
  166     0.00000000000000     0.00000000000000     0.00000000000000     0.00000000000000     0.00074186821153
  167     0.00000000000000     0.00000000000000     0.00000000000000     0.00000000000000     0.00061211958384
  168     0.00000000000000     0.00000000000000     0.00000000000000     0.00000000000000     0.00000000000000
  169     0.00000000000000     0.00000000000000     0.00000000000000     0.00000000000000     0.00000000000000
  170     0.00000000000000     0.00000000000000     0.00000000000000     0.00000000000000     0.00000000000000
  171     0.00000000000000     0.00000000000000     0.00000000000000     0.00000000000000     0.00000000000000
  172     0.00000000000000     0.00000000000000     0.00000000000000     0.00000000000000     0.00000000000000
  173     0.00000000000000     0.00000000000000     0.00000000000000     0.00000000000000     0.00000000000000
  174     0.00000000000000     0.00000000000000     0.00000000000000     0.00000000000000     0.00000000000000
  175     0.00000000000000     0.00000000000000     0.00000000000000     0.00000000000000     0.00000000000000
  176     0.00000000000000     0.00000000000000     0.00000000000000     0.00000000000000     0.00000000000000
  177     0.00000000000000     0.00000000000000    -0.00001330013843    -0.00019738651701     0.00000000000000
  178     0.00000000000000     0.00000000000000    -0.00002540408625    -0.00032425660632     0.00000000000000
  179    -0.00001330013843    -0.00019738651701     0.00000000000000     0.00000000000000     0.00000000000000
[...]
  105     0.00000000000000     0.00000000000000     0.00000000000000     0.00000000000000
  106     0.00000000000000     0.00000000000000     0.00000000000000     0.00000000000000
  107     0.00000000000000     0.00000000000000     0.00000000000000     0.00000000000000
  108     0.00000000000000     0.00000000000000     0.00000000000000     0.00000000000000
  109     0.00000000000000     0.00000000000000     0.00000000000000     0.00000000000000
  110     0.00000000000000     0.00000000000000     0.00000000000000     0.00000000000000
  111     0.00000000000000     0.00000000000000     0.00000000000000     0.00000000000000
  112     0.00000000000000     0.00000000000000     0.00000000000000     0.00000000000000
  113     0.00000000000000     0.00000000000000     0.00000000000000     0.00000000000000
  114     0.00000000000000     0.00000000000000     0.00000071706195     0.00000086338297
  115     0.00000000000000     0.00000000000000     0.00000566430220     0.00000688277158
  116     0.00000071706195     0.00000086338297     0.00000000000000     0.00000000000000
  117     0.00000566430220     0.00000688277158     0.00000000000000     0.00000000000000
  118     0.00000000000000     0.00000000000000     0.00000000000000     0.00000000000000
  119     0.00000000000000     0.00000000000000     0.00000000000000     0.00000000000000
  120     0.00000000000000     0.00000000000000     0.00000000000000     0.00000000000000
  121     0.00000000000000     0.00000000000000     0.00000000000000     0.00000000000000
  122     0.00000000000000     0.00000000000000     0.00000000000000     0.00000000000000
  123     0.00000000000000     0.00000000000000     0.00000000000000     0.00000000000000
  124     0.00000000000000     0.00000000000000     0.00000000000000     0.00000000000000
  125     0.00000000000000     0.00000000000000     0.00000000000000     0.00000000000000
  126     0.00000000000000     0.00000000000000     0.00000000000000     0.00000000000000
  127     0.00000000000000     0.00000000000000     0.00000000000000     0.00000000000000
  128     0.00000000000000     0.00000000000000     0.00000000000000     0.00000000000000
  129     0.00000000000000     0.00000000000000     0.00000000000000     0.00000000000000
  130     0.00000000000000     0.00000000000000     0.00000000000000     0.00000000000000
  131     0.00000000000000     0.00000000000000     0.00000000000000     0.00000000000000
  132     0.00000000000000     0.00000000000000     0.00000000000000     0.00000000000000
  133     0.00000000000000     0.00000000000000     0.00000000000000     0.00000000000000
  134     0.00000000000000     0.00000000000000     0.00000000000000     0.00000000000000
  135     0.00000000000000     0.00000000000000     0.00000000000000     0.00000000000000
  136     0.00000000000000     0.00000000000000     0.00000000000000     0.00000000000000
  137     0.00000000000000     0.00000000000000     0.00000000000000     0.00000000000000
  138     0.00000000000000     0.00000000000000     0.00000000000000     0.00000000000000
  139     0.00000000000000     0.00000000000000     0.00000000000000     0.00000000000000
  140     0.00000000000000     0.00000000000000     0.00000000000000     0.00000000000000
  141     0.00000000000000     0.00000000000000     0.00000000000000     0.00000000000000
  142     0.00000000000000     0.00000000000000     0.00000000000000     0.00000000000000
  143     0.00000000000000     0.00000000000000     0.00000000000000     0.00000000000000
  144     0.00000000000000     0.00000000000000     0.00000000000000     0.00000000000000
  145     0.00000000000000     0.00000000000000     0.00000000000000     0.00000000000000
  146     0.00000000000000     0.00000000000000     0.00000000000000     0.00000000000000
  147     0.00000000000000     0.00000000000000     0.00000000000000     0.00000000000000
  148     0.00000000000000     0.00000000000000     0.00000000000000     0.00000000000000
  149     0.00000000000000     0.00000000000000     0.00000000000000     0.00000000000000
  150     0.00000000000000     0.00000000000000     0.00000000000000     0.00000000000000
  151     0.00000000000000     0.00000000000000     0.00000000000000     0.00000000000000
  152     0.00000000000000     0.00000000000000     0.00000000000000     0.00000000000000
  153     0.00000000000000     0.00000000000000     0.00000000000000     0.00000000000000
  154     0.00000000000000     0.00000000000000     0.00000000000000     0.00000000000000
  155     0.00000000000000     0.00000000000000     0.00000000000000     0.00000000000000
  156     0.00000000000000     0.00000000000000     0.00000000000000     0.00000000000000
  157     0.00000000000000     0.00000000000000     0.00000000000000     0.00000000000000
  158     0.00000000000000     0.00000000000000     0.00000000000000     0.00000000000000
  159     0.00000000000000     0.00000000000000     0.00000000000000     0.00000000000000
  160     0.00000000000000     0.00000000000000     0.00000000000000     0.00000000000000
  161     0.00000000000000     0.00000000000000     0.00000000000000     0.00000000000000
  162     0.00000000000000     0.00000000000000     0.00000000000000     0.00000000000000
  163     0.00000000000000     0.00000000000000     0.00000000000000     0.00000000000000
  164     0.00000000000000     0.00000000000000     0.00000000000000     0.00000000000000
  165     0.00000000000000     0.00000000000000     0.00000000000000     0.00000000000000
  166     0.00000000000000     0.00000000000000     0.00000000000000     0.00000000000000
  167     0.00000000000000     0.00000000000000     0.00000000000000     0.00000000000000
  168     0.00000000000000     0.00000000000000     0.00000000000000     0.00000000000000
  169     0.00000000000000     0.00000000000000     0.00000000000000     0.00000000000000
  170     0.00000000000000     0.00000000000000     0.00000000000000     0.00000000000000
  171     0.00000000000000     0.00000000000000     0.00000000000000     0.00000000000000
  172     0.00000000000000     0.00000000000000     0.05779827513465     0.02212934090782
  173     0.00000000000000     0.00000000000000     0.00000000000000     0.00000000000000
  174     0.00000000000000     0.00000000000000     0.00000000000000     0.00000000000000
  175     0.00000000000000     0.00000000000000     0.00000000000000     0.00000000000000
  176     0.00000000000000     0.00000000000000     0.00000000000000     0.00000000000000
  177     0.00000000000000     0.00000000000000     0.00000000000000     0.00000000000000
  178     0.00000000000000     0.00000000000000     0.00000000000000     0.00000000000000
  179     0.00000000000000     0.00000000000000     0.00000000000000     0.00000000000000
  180     0.00000000000000     0.00000000000000     0.00000000000000     0.00000000000000
  181     0.00000000000000     0.00000000000000     0.00000000000000     0.00000000000000
  182     0.00000000000000     0.00000000000000     0.00000000000000     0.00000000000000
  183     0.00000000000000     0.00000000000000     0.00000000000000     0.00000000000000
  184     0.00000000000000     0.00000000000000     0.00000000000000     0.00000000000000
  185     0.00000000000000     0.00000000000000     0.00000000000000     0.00000000000000
  186     0.00000000000000     0.00000000000000     0.00000000000000     0.00000000000000
  187     0.00000000000000     0.00000000000000     0.00000000000000     0.00000000000000
  188     0.00000000000000     0.00000000000000     0.00000000000000     0.00000000000000
  189     0.00000000000000     0.00000000000000     0.00000000000000     0.00000000000000
  190     0.00000000000000     0.00000000000000     0.00000000000000     0.00000000000000
  191     0.00000000000000     0.00000000000000     0.00000000000000     0.00000000000000
  192     0.00000000000000     0.00000000000000     0.00000000000000     0.00000000000000
  193     0.00000000000000     0.00000000000000     0.00000000000000     0.00000000000000
  194     0.00000000000000     0.00000000000000     0.00000000000000     0.00000000000000
  195     0.00000000000000     0.00000000000000     0.00000000000000     0.00000000000000
  196     0.00000000000000     0.00000000000000     0.00000000000000     0.00000000000000
  197     0.00000000000000     0.00000000000000     0.00000000000000     0.00000000000000
  198     0.00000000000000     0.00000000000000     0.00000000000000     0.00000000000000
  199     0.00000000000000     0.00000000000000     0.00000000000000     0.00000000000000
  200     0.00000000000000     0.00000000000000     0.00000000000000     0.00000000000000
  201     0.00000000000000     0.00000000000000     0.00000000000000     0.00000000000000
  202     0.00000000000000     0.00000000000000     0.00000000000000     0.00000000000000
  203     0.00000000000000     0.00000000000000     0.00000000000000     0.00000000000000
  204     0.00000000000000     0.00000000000000     0.00000000000000     0.00000000000000
  205     0.00000000000000     0.00000000000000     0.00000000000000     0.00000000000000
  206     0.00000000000000     0.00000000000000     0.00000000000000     0.00000000000000
  207     0.00000000000000     0.00000000000000     0.00000000000000     0.00000000000000
  208     0.00000000000000     0.00000000000000     0.00000000000000     0.00000000000000
  209     0.00000000000000     0.00000000000000     0.00000000000000     0.00000000000000
  210     0.00000000000000     0.00000000000000     0.00000000000000     0.00000000000000
  211     0.00000000000000     0.00000000000000     0.00000000000000     0.00000000000000
  212     0.00000000000000     0.00000000000000     0.00000000000000     0.00000000000000
  213     0.00000000000000     0.00000000000000     0.00000000000000     0.00000000000000
  214     0.00000000000000     0.00000000000000     0.00000000000000     0.00000000000000
  215     0.00000000000000     0.00000000000000     0.00000000000000     0.00000000000000
  216     0.00000000000000     0.00000000000000     0.00000000000000     0.00000000000000
  217     0.00000000000000     0.00000000000000     0.00000000000000     0.00000000000000
  218     0.00000000000000     0.00000000000000     0.00000000000000     0.00000000000000
  219     0.00000000000000     0.00000000000000     0.00000000000000     0.00000000000000
  220     0.00000000000000     0.00000000000000     0.00000000000000     0.00000000000000
  221     0.00000000000000     0.00000000000000     0.00000000000000     0.00000000000000
  222     0.00000000000000     0.00000000000000     0.00000000000000     0.00000000000000
  223     0.00000000000000     0.00000000000000     0.00000000000000     0.00000000000000
  224     0.00000000000000     0.00000000000000     0.00000000000000     0.00000000000000
  225     0.00000000000000     0.00000000000000     0.00000000000000     0.00000000000000
  226     0.00000000000000     0.00000000000000     0.00000000000000     0.00000000000000
  227     0.00000000000000     0.00000000000000     0.00000000000000     0.00000000000000
  228     0.00000000000000     0.00000000000000     0.00000000000000     0.00000000000000
  229     0.00000000000000     0.00000000000000     0.00000000000000     0.00000000000000
  230     0.00000000000000     0.00000000000000     0.00000000000000     0.00000000000000
  231     0.00000000000000     0.00000000000000     0.00000000000000     0.00000000000000
  232     0.00000000000000     0.00000000000000     0.00000000000000     0.00000000000000
  233     0.00000000000000     0.00000000000000     0.00000000000000     0.00000000000000
  234     0.00000000000000     0.00000000000000     0.00000000000000     0.00000000000000
  235     0.00000000000000     0.00000000000000     0.00000000000000     0.00000000000000
  236     0.00000000000000     0.00000000000000     0.00000000000000     0.00000000000000
  237     0.00000000000000     0.00000000000000     0.00000000000000     0.00000000000000
  238     0.00000000000000     0.00000000000000     0.00000000000000     0.00000000000000
  239     0.00000000000000     0.00000000000000     0.00000000000000     0.00000000000000
  240     0.00000000000000     0.00000000000000     0.00000000000000     0.00000000000000
  241     0.00000000000000     0.00000000000000     0.00000000000000     0.00000000000000
  242     0.00000000000000     0.00000000000000     0.00000000000000     0.00000000000000
  243     0.00000000000000     0.00000000000000     0.00000000000000     0.00000000000000
  244     0.00000000000000     0.00000000000000     0.00000000000000     0.00000000000000
  245     0.00000000000000     0.00000000000000     0.00000000000000     0.00000000000000
  246     0.00000000000000     0.00000000000000     0.00000000000000     0.00000000000000
  247     0.00000000000000     0.00000000000000     0.00000000000000     0.00000000000000
  248     0.00000000000000     0.00000000000000     0.00000000000000     0.00000000000000
  249     0.00000000000000     0.00000000000000     0.00000000000000     0.00000000000000
  250     0.00000000000000     0.00000000000000     0.00000000000000     0.00000000000000
  251     0.00000000000000     0.00000000000000     0.00000000000000     0.00000000000000
  252     0.00000000000000     0.00000000000000     0.00000000000000     0.00000000000000
  253     0.00000000000000     0.00000000000000     0.00000000000000     0.00000000000000
  254     0.00000000000000     0.00000000000000     0.00000000000000     0.00000000000000
  255     0.00000000000000     0.00000000000000     0.00000000000000     0.00000000000000
  256     0.00000000000000     0.00000000000000     0.00000000000000     0.00000000000000
  257     0.00000000000000     0.00000000000000     0.00000000000000     0.00000000000000
  258     0.00000000000000     0.00000000000000     0.00000000000000     0.00000000000000
  259     0.00000000000000     0.00000000000000     0.00000000000000     0.00000000000000
  260     0.00000000000000     0.00000000000000     0.00000000000000     0.00000000000000
  261     0.00000000000000     0.00000000000000     0.00000000000000     0.00000000000000
  262     0.00000000000000     0.00000000000000     0.00000000000000     0.00000000000000
  263     0.00000000000000     0.00000000000000     0.00000000000000     0.00000000000000
  264     0.00000000000000     0.00000000000000     0.00000000000000     0.00000000000000
  265     0.00000000000000     0.00000000000000     0.00000000000000     0.00000000000000
  266     0.00000000000000     0.00000000000000     0.00000000000000     0.00000000000000
  267     0.00000000000000     0.00000000000000     0.00000000000000     0.00000000000000
  268     0.00000000000000     0.00000000000000     0.00000000000000     0.00000000000000
  269     0.00000000000000     0.00000000000000     0.00000000000000     0.00000000000000
  270     0.00000000000000     0.00000000000000     0.00000000000000     0.00000000000000
  271     0.00000000000000     0.00000000000000     0.00000000000000     0.00000000000000
  272     0.00000000000000     0.00000000000000     0.00000000000000     0.00000000000000
  273     0.00000000000000     0.00000000000000     0.00000000000000     0.00000000000000
  274     0.00000000000000     0.00000000000000     0.00000000000000     0.00000000000000
  275     0.00000000000000     0.00000000000000     0.00000000000000     0.00000000000000
  276     0.00000000000000     0.00000000000000     0.00000000000000     0.00000000000000
  277     0.00000000000000     0.00000000000000     0.00000000000000     0.00000000000000
  278     0.00000000000000     0.00000000000000     0.00000000000000     0.00000000000000
  279     0.00000000000000     0.00000000000000     0.00000000000000     0.00000000000000
  280     0.00000000000000     0.00000000000000     0.00000000000000     0.00000000000000
  281     0.00000000000000     0.00000000000000     0.00000000000000     0.00000000000000
  282     0.00000000000000     0.00000000000000     0.00000000000000     0.00000000000000
  283     0.00000000000000     0.00000000000000     0.00000000000000     0.00000000000000
  284     0.00000000000000     0.00000000000000     0.00000000000000     0.00000000000000
  285     0.00000000000000     0.00000000000000     0.00000000000000     0.00000000000000
  286     0.00000000000000     0.00000000000000     0.00000000000000     0.00000000000000
  287     0.00000000000000     0.00000000000000     0.00000000000000     0.00000000000000
  288     0.00000000000000     0.00000000000000     0.00000000000000     0.00000000000000
  289     0.00000000000000     0.00000000000000     0.00000000000000     0.00000000000000
  290     0.00000000000000     0.00000000000000     0.00000000000000     0.00000000000000
  291     0.00000000000000     0.00000000000000     0.00000000000000     0.00000000000000
  292     0.00000000000000     0.00000000000000     0.00000000000000     0.00000000000000
  293     0.00000000000000     0.00000000000000     0.00000000000000     0.00000000000000
  294     0.00000000000000     0.00000000000000     0.00000000000000     0.00000000000000
  295     0.00000000000000     0.00000000000000     0.00000000000000     0.00000000000000
  296     0.00000000000000     0.00000000000000     0.00000000000000     0.00000000000000
  297     0.00000000000000     0.00000000000000     0.00000000000000     0.00000000000000
  298     0.00000000000000     0.00000000000000     0.00000000000000     0.00000000000000
  299     0.00000000000000     0.00000000000000     0.00000000000000     0.00000000000000
  300     0.00000000000000     0.00000000000000     0.00000000000000     0.00000000000000
  301     0.00000000000000     0.00000000000000     0.00000000000000     0.00000000000000
  302     0.00000000000000     0.00000000000000     0.00000000000000     0.00000000000000
  303     0.02538781827257     0.00980178140145     0.00000000000000     0.00000000000000
  304     0.00980131568692     0.00350841346162     0.00000000000000     0.00000000000000
  305     0.00000000000000     0.00000000000000     0.02538781827257     0.00980178140145
  306     0.00000000000000     0.00000000000000     0.00980131568692     0.00350841346162
  307     0.00000000000000     0.00000000000000     0.00000000000000     0.00000000000000
  308     0.00000000000000     0.00000000000000     0.00000000000000     0.00000000000000
  309     0.00000000000000     0.00000000000000     0.00000000000000     0.00000000000000
  310     0.00000000000000     0.00000000000000     0.00000000000000     0.00000000000000
  311     0.00000000000000     0.00000000000000     0.00000000000000     0.00000000000000
  312     0.00000000000000     0.00000000000000     0.00000000000000     0.00000000000000
  313     0.00000000000000     0.00000000000000     0.00000000000000     0.00000000000000
  314     0.00000000000000     0.00000000000000     0.00000000000000     0.00000000000000
  315     0.00000000000000     0.00000000000000     0.00000000000000     0.00000000000000
  316     0.00000000000000     0.00000000000000     0.00000000000000     0.00000000000000
  317     0.00000000000000     0.00000000000000     0.00000000000000     0.00000000000000
  318     0.00000000000000     0.00000000000000     0.00000000000000     0.00000000000000
  319     0.00000000000000     0.00000000000000     0.00000000000000     0.00000000000000
  320     0.00000000000000     0.00000000000000     0.00000000000000     0.00000000000000
  321     0.00908031980088     0.00350841346162     0.00000000000000     0.00000000000000
  322     0.00350841346162     0.00125948751206     0.00000000000000     0.00000000000000
  323     0.00000000000000     0.00000000000000     0.00908031980088     0.00350841346162
  324     0.00000000000000     0.00000000000000     0.00350841346162     0.00125948751206




    Psi4 stopped on: Sunday, 25 October 2020 01:13AM
    Psi4 wall time for execution: 0:00:03.44

*** Psi4 exiting successfully. Buy a developer a beer!
